/*--------------------------------*- C++ -*----------------------------------*\
| =========                 |                                                 |
| \\      /  F ield         | OpenFOAM: The Open Source CFD Toolbox           |
|  \\    /   O peration     | Version:  2506                                  |
|   \\  /    A nd           | Website:  www.openfoam.com                      |
|    \\/     M anipulation  |                                                 |
\*---------------------------------------------------------------------------*/
FoamFile
{
    version     2.0;
    format      ascii;
    arch        "LSB;label=32;scalar=64";
    class       surfaceScalarField;
    location    "3.5517553936";
    object      phi;
}
// * * * * * * * * * * * * * * * * * * * * * * * * * * * * * * * * * * * * * //

dimensions      [1 0 -1 0 0 0 0];

oriented        oriented;

internalField   nonuniform List<scalar> 
370
(
-6.38491e-06
-7.45589e-06
-2.36599e-06
-3.63813e-06
-6.00503e-07
-2.71595e-06
4.02723e-07
-2.44518e-06
1.00133e-06
-2.14369e-06
1.37161e-06
-1.87776e-06
1.61456e-06
-1.65027e-06
1.7825e-06
-1.45146e-06
1.9023e-06
-1.27703e-06
-1.12444e-06
-1.31392e-06
-4.71596e-06
-8.78012e-07
-3.59149e-06
-2.43667e-07
-2.89928e-06
2.15872e-07
-2.4794e-06
5.81139e-07
-2.10817e-06
8.72006e-07
-1.79249e-06
1.10445e-06
-1.53172e-06
1.29384e-06
-1.31549e-06
1.45084e-06
-1.13452e-06
-9.82129e-07
-1.4202e-07
-3.85748e-06
-1.63443e-07
-3.1097e-06
-1.70879e-08
-2.60974e-06
1.58496e-07
-2.23914e-06
3.55399e-07
-1.90932e-06
5.56905e-07
-1.61927e-06
7.50939e-07
-1.37312e-06
9.32381e-07
-1.1673e-06
1.09952e-06
-9.95658e-07
-8.52543e-07
-1.89194e-07
-3.29559e-06
-1.53767e-07
-2.70281e-06
-7.48167e-08
-2.26669e-06
2.97414e-08
-1.93793e-06
1.64546e-07
-1.65508e-06
3.22284e-07
-1.40605e-06
4.91768e-07
-1.19116e-06
6.64158e-07
-1.00898e-06
8.33608e-07
-8.56032e-07
-7.28494e-07
-2.71402e-07
-2.75561e-06
-2.65812e-07
-2.27957e-06
-2.117e-07
-1.91021e-06
-1.26964e-07
-1.62583e-06
-1.27605e-08
-1.38672e-06
1.26715e-07
-1.17874e-06
2.83696e-07
-9.98731e-07
4.50331e-07
-8.45004e-07
6.20224e-07
-7.15222e-07
-6.06802e-07
-3.50203e-07
-2.21236e-06
-3.73716e-07
-1.837e-06
-3.42136e-07
-1.54005e-06
-2.70956e-07
-1.30752e-06
-1.67261e-07
-1.11346e-06
-3.68062e-08
-9.46244e-07
1.13533e-07
-8.01814e-07
2.76738e-07
-6.78173e-07
4.46583e-07
-5.73486e-07
-4.8593e-07
-4.26173e-07
-1.66402e-06
-4.66188e-07
-1.38481e-06
-4.50024e-07
-1.16106e-06
-3.89293e-07
-9.84425e-07
-2.92929e-07
-8.37353e-07
-1.68121e-07
-7.11313e-07
-2.18706e-08
-6.02731e-07
1.39069e-07
-5.09764e-07
3.08597e-07
-4.30967e-07
-3.65044e-07
-4.87729e-07
-1.11128e-06
-5.38529e-07
-9.26479e-07
-5.32277e-07
-7.76781e-07
-4.78889e-07
-6.58078e-07
-3.87763e-07
-5.59328e-07
-2.66814e-07
-4.74962e-07
-1.23301e-07
-4.02433e-07
3.60362e-08
-3.40371e-07
2.05123e-07
-2.87764e-07
-2.4376e-07
-5.29769e-07
-5.56105e-07
-5.87387e-07
-4.64183e-07
-5.8735e-07
-3.89203e-07
-5.38743e-07
-3.29589e-07
-4.51096e-07
-2.80006e-07
-3.32674e-07
-2.37711e-07
-1.90937e-07
-2.01399e-07
-3.26823e-08
-1.70346e-07
1.35991e-07
-1.44028e-07
-1.22021e-07
-5.50989e-07
2.33902e-12
-6.11853e-07
2.37738e-12
-6.14856e-07
2.42408e-12
-5.68643e-07
2.48509e-12
-4.82759e-07
2.56374e-12
-3.65614e-07
2.65174e-12
-2.2477e-07
2.74714e-12
-6.70734e-08
2.83778e-12
1.01352e-07
2.92167e-12
2.96975e-12
-5.50989e-07
5.5611e-07
-6.11853e-07
4.64188e-07
-6.14856e-07
3.89208e-07
-5.68643e-07
3.29594e-07
-4.82759e-07
2.80011e-07
-3.65614e-07
2.37717e-07
-2.2477e-07
2.01405e-07
-6.70735e-08
1.70351e-07
1.01352e-07
1.44034e-07
1.22027e-07
-5.29769e-07
1.11129e-06
-5.87387e-07
9.26484e-07
-5.8735e-07
7.76786e-07
-5.38743e-07
6.58083e-07
-4.51096e-07
5.59333e-07
-3.32675e-07
4.74967e-07
-1.90937e-07
4.02438e-07
-3.26827e-08
3.40376e-07
1.3599e-07
2.87769e-07
2.43766e-07
-4.87729e-07
1.66402e-06
-5.38529e-07
1.38482e-06
-5.32277e-07
1.16107e-06
-4.78889e-07
9.84429e-07
-3.87764e-07
8.37358e-07
-2.66815e-07
7.11318e-07
-1.23301e-07
6.02737e-07
3.60356e-08
5.09769e-07
2.05122e-07
4.30973e-07
3.6505e-07
-4.26173e-07
2.21236e-06
-4.66188e-07
1.83701e-06
-4.50025e-07
1.54006e-06
-3.89294e-07
1.30752e-06
-2.9293e-07
1.11347e-06
-1.68122e-07
9.46249e-07
-2.18713e-08
8.0182e-07
1.39068e-07
6.78178e-07
3.08596e-07
5.73492e-07
4.85936e-07
-3.50203e-07
2.75561e-06
-3.73717e-07
2.27958e-06
-3.42137e-07
1.91021e-06
-2.70957e-07
1.62584e-06
-1.67262e-07
1.38673e-06
-3.68068e-08
1.17874e-06
1.13533e-07
9.98736e-07
2.76737e-07
8.45009e-07
4.46582e-07
7.15228e-07
6.06808e-07
-2.71402e-07
3.29559e-06
-2.65812e-07
2.70281e-06
-2.117e-07
2.2667e-06
-1.26964e-07
1.93793e-06
-1.2761e-08
1.65509e-06
1.26715e-07
1.40605e-06
2.83695e-07
1.19117e-06
4.5033e-07
1.00898e-06
6.20223e-07
8.56037e-07
7.285e-07
-1.89194e-07
3.85748e-06
-1.53767e-07
3.10971e-06
-7.48168e-08
2.60975e-06
2.97412e-08
2.23914e-06
1.64546e-07
1.90932e-06
3.22283e-07
1.61927e-06
4.91767e-07
1.37313e-06
6.64157e-07
1.16731e-06
8.33607e-07
9.95664e-07
8.52549e-07
-1.4202e-07
4.71596e-06
-1.63444e-07
3.59149e-06
-1.70881e-08
2.89929e-06
1.58496e-07
2.47941e-06
3.55399e-07
2.10817e-06
5.56904e-07
1.79249e-06
7.50939e-07
1.53172e-06
9.3238e-07
1.31549e-06
1.09952e-06
1.13453e-06
9.82134e-07
-1.31392e-06
7.45589e-06
-8.78012e-07
3.63813e-06
-2.43667e-07
2.71595e-06
2.15871e-07
2.44519e-06
5.81139e-07
2.1437e-06
8.72006e-07
1.87777e-06
1.10445e-06
1.65027e-06
1.29384e-06
1.45146e-06
1.45084e-06
1.27703e-06
1.12445e-06
-6.38492e-06
-2.36599e-06
-6.00504e-07
4.02723e-07
1.00133e-06
1.37161e-06
1.61456e-06
1.7825e-06
1.9023e-06
)
;

boundaryField
{
    leftWall
    {
        type            calculated;
        value           nonuniform List<scalar> 
20
(
7.09456e-06
-8.76646e-07
-2.01591e-07
1.21603e-07
2.13552e-07
2.81649e-07
3.48003e-07
4.02505e-07
4.40643e-07
4.6029e-07
4.6029e-07
4.40643e-07
4.02505e-07
3.48004e-07
2.81649e-07
2.13553e-07
1.21603e-07
-2.0159e-07
-8.76645e-07
7.09456e-06
)
;
    }
    rightWall
    {
        type            calculated;
        value           nonuniform List<scalar> 0();
    }
    topWall
    {
        type            calculated;
        value           nonuniform List<scalar> 10(7.29765e-06 1.17359e-07 1.40794e-06 1.86608e-06 1.93903e-06 1.87231e-06 1.74332e-06 1.59087e-06 1.43627e-06 1.28988e-06);
    }
    bottomWall
    {
        type            calculated;
        value           nonuniform List<scalar> 10(7.29765e-06 1.17362e-07 1.40794e-06 1.86608e-06 1.93904e-06 1.87231e-06 1.74333e-06 1.59087e-06 1.43628e-06 1.28988e-06);
    }
    frontAndBackPlanes
    {
        type            empty;
    }
    procBoundary1to0
    {
        type            processor;
        value           nonuniform List<scalar> 
20
(
1.98823e-06
1.58223e-06
1.25203e-06
9.96456e-07
7.88591e-07
6.17959e-07
4.8149e-07
3.7866e-07
3.09727e-07
2.75118e-07
2.75118e-07
3.09726e-07
3.78659e-07
4.81489e-07
6.17958e-07
7.8859e-07
9.96455e-07
1.25203e-06
1.58223e-06
1.98823e-06
)
;
    }
}


// ************************************************************************* //
