/*--------------------------------*- C++ -*----------------------------------*\
| =========                 |                                                 |
| \\      /  F ield         | OpenFOAM: The Open Source CFD Toolbox           |
|  \\    /   O peration     | Version:  2506                                  |
|   \\  /    A nd           | Website:  www.openfoam.com                      |
|    \\/     M anipulation  |                                                 |
\*---------------------------------------------------------------------------*/
FoamFile
{
    version     2.0;
    format      ascii;
    arch        "LSB;label=32;scalar=64";
    class       volScalarField;
    location    "3.5517553936";
    object      T;
}
// * * * * * * * * * * * * * * * * * * * * * * * * * * * * * * * * * * * * * //

dimensions      [0 0 0 1 0 0 0];

internalField   nonuniform List<scalar> 
200
(
289.215
280.041
277.727
276.603
275.864
275.32
274.897
274.559
274.283
274.056
286.234
280.403
278.344
277.146
276.327
275.717
275.241
274.859
274.545
274.285
285.162
280.267
278.44
277.316
276.512
275.898
275.41
275.013
274.685
274.412
284.733
280.139
278.443
277.385
276.611
276.008
275.521
275.12
274.786
274.505
284.516
280.05
278.427
277.417
276.67
276.081
275.6
275.2
274.863
274.578
284.388
279.992
278.411
277.433
276.708
276.132
275.657
275.26
274.923
274.636
284.307
279.953
278.399
277.442
276.732
276.166
275.698
275.304
274.968
274.681
284.256
279.929
278.391
277.447
276.748
276.19
275.727
275.335
275
274.713
284.226
279.914
278.386
277.45
276.758
276.205
275.745
275.355
275.021
274.734
284.211
279.907
278.384
277.452
276.763
276.212
275.754
275.365
275.032
274.745
284.211
279.907
278.384
277.452
276.763
276.212
275.754
275.365
275.032
274.745
284.226
279.914
278.386
277.45
276.758
276.205
275.745
275.355
275.021
274.734
284.256
279.929
278.391
277.447
276.748
276.19
275.727
275.335
275
274.713
284.307
279.953
278.399
277.442
276.732
276.166
275.698
275.304
274.968
274.681
284.388
279.992
278.411
277.433
276.708
276.132
275.657
275.26
274.923
274.636
284.516
280.05
278.427
277.417
276.67
276.081
275.6
275.2
274.863
274.578
284.733
280.139
278.443
277.385
276.611
276.008
275.521
275.12
274.786
274.505
285.162
280.267
278.44
277.316
276.512
275.898
275.41
275.013
274.685
274.412
286.234
280.403
278.344
277.146
276.327
275.717
275.241
274.859
274.545
274.285
289.215
280.041
277.727
276.603
275.864
275.32
274.897
274.559
274.283
274.056
)
;

boundaryField
{
    leftWall
    {
        type            fixedValue;
        value           uniform 373;
    }
    rightWall
    {
        type            fixedValue;
        value           nonuniform List<scalar> 0();
    }
    topWall
    {
        type            fixedValue;
        value           uniform 273;
    }
    bottomWall
    {
        type            fixedValue;
        value           uniform 273;
    }
    frontAndBackPlanes
    {
        type            empty;
    }
    procBoundary1to0
    {
        type            processor;
        value           nonuniform List<scalar> 
20
(
273.867
274.068
274.181
274.267
274.336
274.391
274.434
274.466
274.487
274.497
274.497
274.487
274.466
274.434
274.391
274.336
274.267
274.181
274.068
273.867
)
;
    }
}


// ************************************************************************* //
