/*--------------------------------*- C++ -*----------------------------------*\
| =========                 |                                                 |
| \\      /  F ield         | OpenFOAM: The Open Source CFD Toolbox           |
|  \\    /   O peration     | Version:  2506                                  |
|   \\  /    A nd           | Website:  www.openfoam.com                      |
|    \\/     M anipulation  |                                                 |
\*---------------------------------------------------------------------------*/
FoamFile
{
    version     2.0;
    format      ascii;
    arch        "LSB;label=32;scalar=64";
    class       volVectorField;
    location    "3.5517553936";
    object      U;
}
// * * * * * * * * * * * * * * * * * * * * * * * * * * * * * * * * * * * * * //

dimensions      [0 1 -1 0 0 0 0];

internalField   nonuniform List<vector> 
200
(
(-0.000165641 -0.000178275 0)
(-8.57657e-06 -4.45385e-05 0)
(-1.03561e-05 -3.43036e-05 0)
(-3.56615e-07 -3.30526e-05 0)
(6.00151e-06 -3.03318e-05 0)
(9.71096e-06 -2.733e-05 0)
(1.20608e-05 -2.44292e-05 0)
(1.36587e-05 -2.17185e-05 0)
(1.47853e-05 -1.92538e-05 0)
(1.55936e-05 -1.70571e-05 0)
(-1.79628e-05 -2.1088e-05 0)
(-6.40877e-06 -2.68133e-05 0)
(-4.2467e-06 -2.34738e-05 0)
(-3.6203e-08 -2.08548e-05 0)
(3.35937e-06 -1.79338e-05 0)
(5.94389e-06 -1.53553e-05 0)
(7.98975e-06 -1.3215e-05 0)
(9.6512e-06 -1.14271e-05 0)
(1.10204e-05 -9.91587e-06 0)
(1.21628e-05 -8.62993e-06 0)
(-2.10472e-06 -3.25555e-05 0)
(-1.35174e-06 -2.64706e-05 0)
(-9.09982e-07 -2.19168e-05 0)
(5.26192e-07 -1.87101e-05 0)
(2.07183e-06 -1.59178e-05 0)
(3.66821e-06 -1.35036e-05 0)
(5.25062e-06 -1.14752e-05 0)
(6.75414e-06 -9.78634e-06 0)
(8.148e-06 -8.37862e-06 0)
(9.42474e-06 -7.20218e-06 0)
(-3.45451e-06 -2.91454e-05 0)
(-1.59094e-06 -2.35426e-05 0)
(-9.63027e-07 -1.9564e-05 0)
(-2.10785e-07 -1.66814e-05 0)
(7.41057e-07 -1.42243e-05 0)
(1.92118e-06 -1.20714e-05 0)
(3.24377e-06 -1.02255e-05 0)
(4.62201e-06 -8.66927e-06 0)
(5.99599e-06 -7.36728e-06 0)
(7.32873e-06 -6.28254e-06 0)
(-4.63777e-06 -2.43435e-05 0)
(-2.46509e-06 -2.00148e-05 0)
(-1.90348e-06 -1.67592e-05 0)
(-1.37889e-06 -1.42872e-05 0)
(-6.07743e-07 -1.21926e-05 0)
(4.16416e-07 -1.03604e-05 0)
(1.61662e-06 -8.77554e-06 0)
(2.92295e-06 -7.42576e-06 0)
(4.27785e-06 -6.28894e-06 0)
(5.63696e-06 -5.3402e-06 0)
(-5.63295e-06 -1.98827e-05 0)
(-3.27145e-06 -1.64833e-05 0)
(-2.85815e-06 -1.38215e-05 0)
(-2.48087e-06 -1.17488e-05 0)
(-1.80665e-06 -1.00114e-05 0)
(-8.60208e-07 -8.50799e-06 0)
(2.76626e-07 -7.20806e-06 0)
(1.54221e-06 -6.09609e-06 0)
(2.88371e-06 -5.1556e-06 0)
(4.2558e-06 -4.36937e-06 0)
(-6.60224e-06 -1.5525e-05 0)
(-3.97989e-06 -1.29046e-05 0)
(-3.66346e-06 -1.08165e-05 0)
(-3.39001e-06 -9.17368e-06 0)
(-2.78632e-06 -7.80519e-06 0)
(-1.89086e-06 -6.63048e-06 0)
(-7.93039e-07 -5.61769e-06 0)
(4.46887e-07 -4.75058e-06 0)
(1.77822e-06 -4.0159e-06 0)
(3.1557e-06 -3.40131e-06 0)
(-7.39775e-06 -1.11184e-05 0)
(-4.54218e-06 -9.2584e-06 0)
(-4.28242e-06 -7.75958e-06 0)
(-4.07967e-06 -6.57377e-06 0)
(-3.52682e-06 -5.58769e-06 0)
(-2.66698e-06 -4.7448e-06 0)
(-1.59524e-06 -4.01987e-06 0)
(-3.72657e-07 -3.39949e-06 0)
(9.50628e-07 -2.87368e-06 0)
(2.32925e-06 -2.43384e-06 0)
(-7.94583e-06 -6.67872e-06 0)
(-4.92396e-06 -5.56969e-06 0)
(-4.69794e-06 -4.66852e-06 0)
(-4.54055e-06 -3.95301e-06 0)
(-4.02144e-06 -3.35813e-06 0)
(-3.18514e-06 -2.85068e-06 0)
(-2.13028e-06 -2.41498e-06 0)
(-9.19012e-07 -2.04238e-06 0)
(3.98404e-07 -1.72664e-06 0)
(1.77638e-06 -1.46261e-06 0)
(-8.2242e-06 -2.22719e-06 0)
(-5.11557e-06 -1.85889e-06 0)
(-4.90564e-06 -1.55826e-06 0)
(-4.77071e-06 -1.31914e-06 0)
(-4.26865e-06 -1.12031e-06 0)
(-3.44425e-06 -9.50861e-07 0)
(-2.39788e-06 -8.0549e-07 0)
(-1.19234e-06 -6.81233e-07 0)
(1.2193e-07 -5.75958e-07 0)
(1.49914e-06 -4.8795e-07 0)
(-8.2242e-06 2.22723e-06 0)
(-5.11557e-06 1.85893e-06 0)
(-4.90564e-06 1.5583e-06 0)
(-4.77071e-06 1.31918e-06 0)
(-4.26865e-06 1.12035e-06 0)
(-3.44425e-06 9.50904e-07 0)
(-2.39788e-06 8.05534e-07 0)
(-1.19234e-06 6.81278e-07 0)
(1.21928e-07 5.76004e-07 0)
(1.49914e-06 4.87997e-07 0)
(-7.94583e-06 6.67875e-06 0)
(-4.92396e-06 5.56973e-06 0)
(-4.69795e-06 4.66856e-06 0)
(-4.54055e-06 3.95305e-06 0)
(-4.02145e-06 3.35817e-06 0)
(-3.18514e-06 2.85072e-06 0)
(-2.13028e-06 2.41502e-06 0)
(-9.19016e-07 2.04243e-06 0)
(3.98401e-07 1.72668e-06 0)
(1.77638e-06 1.46266e-06 0)
(-7.39775e-06 1.11184e-05 0)
(-4.54218e-06 9.25844e-06 0)
(-4.28243e-06 7.75962e-06 0)
(-4.07967e-06 6.57381e-06 0)
(-3.52682e-06 5.58773e-06 0)
(-2.66699e-06 4.74484e-06 0)
(-1.59525e-06 4.01991e-06 0)
(-3.72663e-07 3.39954e-06 0)
(9.50622e-07 2.87372e-06 0)
(2.32925e-06 2.43389e-06 0)
(-6.60224e-06 1.5525e-05 0)
(-3.97989e-06 1.29047e-05 0)
(-3.66346e-06 1.08165e-05 0)
(-3.39001e-06 9.17372e-06 0)
(-2.78632e-06 7.80523e-06 0)
(-1.89086e-06 6.63053e-06 0)
(-7.93044e-07 5.61773e-06 0)
(4.4688e-07 4.75062e-06 0)
(1.77821e-06 4.01594e-06 0)
(3.15569e-06 3.40136e-06 0)
(-5.63296e-06 1.98827e-05 0)
(-3.27145e-06 1.64834e-05 0)
(-2.85815e-06 1.38216e-05 0)
(-2.48088e-06 1.17488e-05 0)
(-1.80665e-06 1.00115e-05 0)
(-8.60212e-07 8.50803e-06 0)
(2.7662e-07 7.2081e-06 0)
(1.54221e-06 6.09614e-06 0)
(2.8837e-06 5.15565e-06 0)
(4.2558e-06 4.36942e-06 0)
(-4.63778e-06 2.43436e-05 0)
(-2.4651e-06 2.00149e-05 0)
(-1.90348e-06 1.67593e-05 0)
(-1.37889e-06 1.42873e-05 0)
(-6.07746e-07 1.21926e-05 0)
(4.16411e-07 1.03604e-05 0)
(1.61662e-06 8.77559e-06 0)
(2.92294e-06 7.4258e-06 0)
(4.27784e-06 6.28899e-06 0)
(5.63695e-06 5.34024e-06 0)
(-3.45451e-06 2.91454e-05 0)
(-1.59094e-06 2.35426e-05 0)
(-9.63028e-07 1.9564e-05 0)
(-2.10787e-07 1.66814e-05 0)
(7.41054e-07 1.42244e-05 0)
(1.92118e-06 1.20714e-05 0)
(3.24376e-06 1.02255e-05 0)
(4.622e-06 8.66932e-06 0)
(5.99599e-06 7.36733e-06 0)
(7.32872e-06 6.28258e-06 0)
(-2.10473e-06 3.25556e-05 0)
(-1.35174e-06 2.64706e-05 0)
(-9.09984e-07 2.19168e-05 0)
(5.26191e-07 1.87102e-05 0)
(2.07183e-06 1.59179e-05 0)
(3.66821e-06 1.35037e-05 0)
(5.25061e-06 1.14752e-05 0)
(6.75413e-06 9.78638e-06 0)
(8.14799e-06 8.37867e-06 0)
(9.42473e-06 7.20222e-06 0)
(-1.79629e-05 2.1088e-05 0)
(-6.40878e-06 2.68133e-05 0)
(-4.2467e-06 2.34739e-05 0)
(-3.62069e-08 2.08548e-05 0)
(3.35936e-06 1.79339e-05 0)
(5.94388e-06 1.53553e-05 0)
(7.98975e-06 1.32151e-05 0)
(9.6512e-06 1.14272e-05 0)
(1.10204e-05 9.91592e-06 0)
(1.21628e-05 8.62997e-06 0)
(-0.000165641 0.000178275 0)
(-8.57658e-06 4.45386e-05 0)
(-1.03561e-05 3.43036e-05 0)
(-3.5662e-07 3.30526e-05 0)
(6.00151e-06 3.03318e-05 0)
(9.71096e-06 2.73301e-05 0)
(1.20608e-05 2.44292e-05 0)
(1.36587e-05 2.17186e-05 0)
(1.47853e-05 1.92538e-05 0)
(1.55936e-05 1.70572e-05 0)
)
;

boundaryField
{
    leftWall
    {
        type            noSlip;
    }
    rightWall
    {
        type            noSlip;
    }
    topWall
    {
        type            noSlip;
    }
    bottomWall
    {
        type            noSlip;
    }
    frontAndBackPlanes
    {
        type            empty;
    }
    procBoundary1to0
    {
        type            processor;
        value           nonuniform List<vector> 
20
(
(1.61675e-05 -1.51313e-05 0)
(1.31213e-05 -7.53442e-06 0)
(1.0585e-05 -6.21898e-06 0)
(8.59786e-06 -5.38362e-06 0)
(6.96802e-06 -4.55679e-06 0)
(5.62217e-06 -3.72152e-06 0)
(4.54108e-06 -2.89577e-06 0)
(3.72391e-06 -2.07259e-06 0)
(3.17494e-06 -1.24599e-06 0)
(2.89898e-06 -4.15787e-07 0)
(2.89898e-06 4.15835e-07 0)
(3.17493e-06 1.24604e-06 0)
(3.7239e-06 2.07263e-06 0)
(4.54107e-06 2.89582e-06 0)
(5.62216e-06 3.72157e-06 0)
(6.96801e-06 4.55683e-06 0)
(8.59785e-06 5.38367e-06 0)
(1.0585e-05 6.21903e-06 0)
(1.31213e-05 7.53447e-06 0)
(1.61675e-05 1.51314e-05 0)
)
;
    }
}


// ************************************************************************* //
