/*--------------------------------*- C++ -*----------------------------------*\
| =========                 |                                                 |
| \\      /  F ield         | OpenFOAM: The Open Source CFD Toolbox           |
|  \\    /   O peration     | Version:  2506                                  |
|   \\  /    A nd           | Website:  www.openfoam.com                      |
|    \\/     M anipulation  |                                                 |
\*---------------------------------------------------------------------------*/
FoamFile
{
    version     2.0;
    format      ascii;
    arch        "LSB;label=32;scalar=64";
    class       volScalarField;
    location    "0.595795";
    object      alphat;
}
// * * * * * * * * * * * * * * * * * * * * * * * * * * * * * * * * * * * * * //

dimensions      [1 -1 -1 0 0 0 0];

internalField   nonuniform List<scalar> 
400
(
0.173521
0.306167
0.365359
0.400333
0.423129
0.437952
0.447228
0.452732
0.455739
0.45705
0.457051
0.455741
0.452738
0.447239
0.437971
0.423159
0.400379
0.365434
0.306287
0.173875
0.305759
2.62373
3.61835
4.11001
4.39314
4.56535
4.67051
4.73299
4.76756
4.78284
4.78287
4.76763
4.73314
4.67076
4.56574
4.39374
4.11094
3.61976
2.62574
0.306288
0.364777
3.61657
5.50792
6.52865
7.12223
7.47988
7.69624
7.82416
7.89486
7.92618
7.92624
7.89506
7.82453
7.69685
7.48084
7.12365
6.53068
5.51065
3.61977
0.365437
0.399653
4.10711
6.52708
7.91946
8.75423
9.26457
9.57586
9.76105
9.86394
9.90968
9.90978
9.86427
9.76166
9.57684
9.26604
8.75632
7.9223
6.53069
4.11096
0.400382
0.422389
4.38954
7.11952
8.75292
9.75771
10.3826
10.7683
11
11.1296
11.1874
11.1876
11.13
11.0008
10.7696
10.3844
9.7603
8.75633
7.12368
4.39377
0.423162
0.43717
4.5613
7.47636
9.26227
10.3815
11.0876
11.5285
11.7956
11.9461
12.0136
12.0138
11.9466
11.7966
11.53
11.0898
10.3844
9.26607
7.48087
4.56577
0.437973
0.446418
4.66617
7.69215
9.57283
10.7665
11.5277
12.0073
12.3
12.4659
12.5406
12.5408
12.4665
12.3011
12.0089
11.53
10.7697
9.57689
7.6969
4.67078
0.44724
0.451904
4.72846
7.8197
9.75752
10.9975
11.7941
12.2994
12.6095
12.786
12.8657
12.8659
12.7866
12.6107
12.3012
11.7967
11.0009
9.76173
7.82459
4.73316
0.452738
0.4549
4.7629
7.89017
9.86008
11.1267
11.9442
12.4648
12.7855
12.9685
13.0514
13.0516
12.9692
12.7867
12.4667
11.9468
11.1301
9.86439
7.89514
4.76766
0.45574
0.456207
4.77813
7.92135
9.90561
11.1843
12.0114
12.5392
12.8649
13.051
13.1353
13.1355
13.0517
12.8661
12.5411
12.014
11.1878
9.90996
7.92635
4.78291
0.45705
0.456207
4.77813
7.92135
9.90561
11.1843
12.0114
12.5392
12.8649
13.051
13.1353
13.1355
13.0517
12.8661
12.5411
12.014
11.1878
9.90996
7.92635
4.78291
0.45705
0.4549
4.7629
7.89017
9.86008
11.1267
11.9442
12.4648
12.7855
12.9685
13.0514
13.0516
12.9692
12.7867
12.4667
11.9468
11.1301
9.86439
7.89514
4.76766
0.45574
0.451904
4.72846
7.8197
9.75752
10.9975
11.7941
12.2994
12.6095
12.786
12.8657
12.8659
12.7866
12.6107
12.3012
11.7967
11.0009
9.76173
7.82459
4.73316
0.452738
0.446418
4.66617
7.69215
9.57283
10.7665
11.5277
12.0073
12.3
12.4659
12.5406
12.5408
12.4665
12.3011
12.0089
11.53
10.7697
9.57689
7.6969
4.67078
0.44724
0.43717
4.5613
7.47636
9.26227
10.3815
11.0876
11.5285
11.7956
11.9461
12.0136
12.0138
11.9466
11.7966
11.53
11.0898
10.3844
9.26607
7.48087
4.56577
0.437973
0.422389
4.38954
7.11952
8.75292
9.75771
10.3826
10.7683
11
11.1296
11.1874
11.1876
11.13
11.0008
10.7696
10.3844
9.7603
8.75633
7.12368
4.39377
0.423162
0.399653
4.10711
6.52708
7.91946
8.75423
9.26457
9.57586
9.76105
9.86394
9.90968
9.90978
9.86427
9.76166
9.57684
9.26604
8.75632
7.9223
6.53069
4.11096
0.400382
0.364777
3.61657
5.50792
6.52865
7.12223
7.47988
7.69624
7.82416
7.89486
7.92618
7.92624
7.89506
7.82453
7.69685
7.48084
7.12365
6.53068
5.51065
3.61977
0.365437
0.305759
2.62373
3.61835
4.11001
4.39314
4.56535
4.67051
4.73299
4.76756
4.78284
4.78287
4.76763
4.73314
4.67076
4.56574
4.39374
4.11094
3.61976
2.62574
0.306288
0.173521
0.306167
0.365359
0.400333
0.423129
0.437952
0.447228
0.452732
0.455738
0.45705
0.457051
0.455741
0.452738
0.447239
0.437971
0.423159
0.400379
0.365434
0.306287
0.173875
)
;

boundaryField
{
    leftWall
    {
        type            compressible::alphatWallFunction;
        value           nonuniform List<scalar> 
20
(
0.0381776
0.0547437
0.0613917
0.0646462
0.066409
0.0673886
0.0679303
0.0682232
0.0683729
0.0684357
0.0684357
0.0683729
0.0682232
0.0679303
0.0673886
0.066409
0.0646462
0.0613917
0.0547437
0.0381776
)
;
    }
    rightWall
    {
        type            compressible::alphatWallFunction;
        value           nonuniform List<scalar> 
20
(
0.0459183
0.0660222
0.074068
0.0780001
0.0801283
0.0813105
0.081964
0.0823173
0.0824979
0.0825736
0.0825736
0.0824979
0.0823173
0.081964
0.0813105
0.0801283
0.0780001
0.074068
0.0660222
0.0459183
)
;
    }
    topWall
    {
        type            compressible::alphatWallFunction;
        value           nonuniform List<scalar> 
20
(
0.045944
0.0660357
0.0740739
0.0780041
0.0801314
0.0813132
0.0819664
0.0823194
0.0824997
0.0825751
0.0825748
0.0824987
0.0823178
0.0819642
0.0813105
0.0801282
0.0779999
0.0740678
0.066022
0.0459183
)
;
    }
    bottomWall
    {
        type            compressible::alphatWallFunction;
        value           nonuniform List<scalar> 
20
(
0.045944
0.0660357
0.0740739
0.0780041
0.0801314
0.0813132
0.0819664
0.0823194
0.0824997
0.0825751
0.0825748
0.0824987
0.0823178
0.0819642
0.0813105
0.0801282
0.0779999
0.0740678
0.066022
0.0459183
)
;
    }
    frontAndBackPlanes
    {
        type            empty;
    }
}


// ************************************************************************* //
