/*--------------------------------*- C++ -*----------------------------------*\
| =========                 |                                                 |
| \\      /  F ield         | OpenFOAM: The Open Source CFD Toolbox           |
|  \\    /   O peration     | Version:  2506                                  |
|   \\  /    A nd           | Website:  www.openfoam.com                      |
|    \\/     M anipulation  |                                                 |
\*---------------------------------------------------------------------------*/
FoamFile
{
    version     2.0;
    format      ascii;
    arch        "LSB;label=32;scalar=64";
    class       volScalarField;
    location    "0.595795";
    object      epsilon;
}
// * * * * * * * * * * * * * * * * * * * * * * * * * * * * * * * * * * * * * //

dimensions      [0 2 -3 0 0 0 0];

internalField   nonuniform List<scalar> 
400
(
0.118106
0.326236
0.452172
0.517657
0.551118
0.567785
0.575876
0.579704
0.581438
0.582099
0.582089
0.581409
0.579658
0.575815
0.567714
0.551039
0.517571
0.45207
0.326059
0.117936
0.326467
0.254481
0.282258
0.305251
0.319652
0.327871
0.332315
0.334616
0.335736
0.336187
0.336185
0.33573
0.334607
0.332303
0.327857
0.319635
0.305226
0.282213
0.254379
0.32606
0.452494
0.282303
0.282755
0.29396
0.303294
0.309468
0.31316
0.315221
0.316283
0.316727
0.316726
0.316281
0.315219
0.313158
0.309464
0.303287
0.293945
0.28272
0.282213
0.452072
0.518018
0.305313
0.293975
0.299754
0.306619
0.31179
0.315142
0.317126
0.318194
0.318653
0.318653
0.318194
0.317127
0.315143
0.31179
0.306617
0.299743
0.293945
0.305225
0.517572
0.551501
0.319721
0.303315
0.306625
0.31229
0.316956
0.320147
0.322112
0.3232
0.323677
0.323677
0.323201
0.322114
0.320151
0.31696
0.312291
0.306617
0.303287
0.319634
0.551038
0.568184
0.327942
0.30949
0.311796
0.316957
0.321414
0.324552
0.326528
0.327642
0.328136
0.328137
0.327644
0.326532
0.324557
0.32142
0.31696
0.31179
0.309464
0.327855
0.567709
0.576289
0.332388
0.313182
0.315147
0.320147
0.324551
0.327693
0.329696
0.330836
0.331346
0.331347
0.330839
0.329701
0.3277
0.324557
0.320151
0.315143
0.313156
0.332301
0.575805
0.580132
0.334691
0.315243
0.31713
0.322109
0.326524
0.329694
0.331725
0.332888
0.33341
0.333411
0.332891
0.331731
0.329701
0.326532
0.322114
0.317127
0.315217
0.334602
0.579642
0.581879
0.335813
0.316305
0.318197
0.323196
0.327637
0.330832
0.332886
0.334065
0.334595
0.334596
0.334069
0.332892
0.33084
0.327645
0.323202
0.318194
0.316279
0.335724
0.581385
0.582552
0.336266
0.316749
0.318655
0.323672
0.32813
0.33134
0.333406
0.334593
0.335127
0.335129
0.334597
0.333412
0.331348
0.328138
0.323678
0.318652
0.316723
0.336177
0.582056
0.582552
0.336266
0.316749
0.318655
0.323672
0.32813
0.33134
0.333406
0.334593
0.335127
0.335129
0.334597
0.333412
0.331348
0.328138
0.323678
0.318652
0.316723
0.336177
0.582056
0.581879
0.335813
0.316305
0.318197
0.323196
0.327637
0.330832
0.332886
0.334065
0.334595
0.334596
0.334069
0.332892
0.33084
0.327645
0.323202
0.318194
0.316279
0.335724
0.581385
0.580132
0.334691
0.315243
0.31713
0.322109
0.326524
0.329694
0.331725
0.332888
0.33341
0.333411
0.332891
0.33173
0.329701
0.326532
0.322114
0.317127
0.315217
0.334602
0.579642
0.576289
0.332388
0.313182
0.315147
0.320147
0.324551
0.327693
0.329696
0.330836
0.331346
0.331347
0.330839
0.329701
0.3277
0.324557
0.320151
0.315143
0.313156
0.332301
0.575805
0.568184
0.327942
0.30949
0.311796
0.316957
0.321414
0.324552
0.326528
0.327642
0.328136
0.328137
0.327644
0.326532
0.324557
0.32142
0.31696
0.31179
0.309464
0.327855
0.567709
0.551501
0.319721
0.303315
0.306625
0.31229
0.316956
0.320147
0.322112
0.3232
0.323677
0.323677
0.323201
0.322114
0.320151
0.31696
0.312291
0.306617
0.303287
0.319634
0.551038
0.518018
0.305313
0.293975
0.299754
0.306619
0.31179
0.315142
0.317126
0.318194
0.318653
0.318653
0.318194
0.317127
0.315143
0.31179
0.306617
0.299743
0.293945
0.305225
0.517572
0.452494
0.282303
0.282755
0.29396
0.303294
0.309468
0.31316
0.315221
0.316283
0.316727
0.316726
0.316281
0.315219
0.313158
0.309464
0.303287
0.293945
0.28272
0.282213
0.452072
0.326467
0.254481
0.282258
0.305251
0.319652
0.327871
0.332315
0.334616
0.335736
0.336187
0.336185
0.33573
0.334607
0.332303
0.327857
0.319635
0.305226
0.282213
0.254379
0.32606
0.118106
0.326236
0.452172
0.517657
0.551118
0.567785
0.575876
0.579704
0.581438
0.582099
0.582089
0.581409
0.579658
0.575815
0.567714
0.551039
0.517571
0.45207
0.326059
0.117936
)
;

boundaryField
{
    leftWall
    {
        type            epsilonWallFunction;
        blending        stepwise;
        value           nonuniform List<scalar> 
20
(
0.118106
0.326467
0.452494
0.518018
0.551501
0.568184
0.576289
0.580132
0.581879
0.582552
0.582552
0.581879
0.580132
0.576289
0.568184
0.551501
0.518018
0.452494
0.326467
0.118106
)
;
    }
    rightWall
    {
        type            epsilonWallFunction;
        blending        stepwise;
        value           nonuniform List<scalar> 
20
(
0.117936
0.32606
0.452072
0.517572
0.551038
0.567709
0.575805
0.579642
0.581385
0.582056
0.582056
0.581385
0.579642
0.575805
0.567709
0.551038
0.517572
0.452072
0.32606
0.117936
)
;
    }
    topWall
    {
        type            epsilonWallFunction;
        blending        stepwise;
        value           nonuniform List<scalar> 
20
(
0.118106
0.326236
0.452172
0.517657
0.551118
0.567785
0.575876
0.579704
0.581438
0.582099
0.582089
0.581409
0.579658
0.575815
0.567714
0.551039
0.517571
0.45207
0.326059
0.117936
)
;
    }
    bottomWall
    {
        type            epsilonWallFunction;
        blending        stepwise;
        value           nonuniform List<scalar> 
20
(
0.118106
0.326236
0.452172
0.517657
0.551118
0.567785
0.575876
0.579704
0.581438
0.582099
0.582089
0.581409
0.579658
0.575815
0.567714
0.551039
0.517571
0.45207
0.326059
0.117936
)
;
    }
    frontAndBackPlanes
    {
        type            empty;
    }
}


// ************************************************************************* //
