/*--------------------------------*- C++ -*----------------------------------*\
| =========                 |                                                 |
| \\      /  F ield         | OpenFOAM: The Open Source CFD Toolbox           |
|  \\    /   O peration     | Version:  2506                                  |
|   \\  /    A nd           | Website:  www.openfoam.com                      |
|    \\/     M anipulation  |                                                 |
\*---------------------------------------------------------------------------*/
FoamFile
{
    version     2.0;
    format      ascii;
    arch        "LSB;label=32;scalar=64";
    class       volScalarField;
    location    "0.595795";
    object      k;
}
// * * * * * * * * * * * * * * * * * * * * * * * * * * * * * * * * * * * * * //

dimensions      [0 2 -2 0 0 0 0];

internalField   nonuniform List<scalar> 
400
(
0.0151026
0.0333037
0.0428223
0.0479574
0.0508704
0.0525293
0.0534589
0.053965
0.0542245
0.0543332
0.0543327
0.054223
0.0539627
0.0534558
0.0525256
0.0508659
0.0479517
0.0428145
0.0332886
0.0150843
0.0333203
0.086115
0.106482
0.118005
0.124839
0.128883
0.131237
0.132566
0.133271
0.133573
0.133573
0.13327
0.132564
0.131234
0.128879
0.124833
0.117995
0.106466
0.0860895
0.0332888
0.0428432
0.106489
0.131495
0.145954
0.154836
0.160276
0.16354
0.165432
0.166456
0.166902
0.166902
0.166456
0.165432
0.163539
0.160274
0.154832
0.145947
0.131481
0.106466
0.0428147
0.0479804
0.118016
0.145959
0.162329
0.172602
0.179044
0.182998
0.185336
0.186622
0.187187
0.187188
0.186622
0.185337
0.182999
0.179045
0.172601
0.162325
0.145947
0.117996
0.047952
0.0508949
0.124853
0.154843
0.172604
0.183905
0.191105
0.195594
0.198288
0.199787
0.200452
0.200452
0.199788
0.19829
0.195597
0.191107
0.183906
0.172601
0.154833
0.124833
0.050866
0.0525548
0.128898
0.160284
0.179047
0.191105
0.198871
0.203768
0.206737
0.208404
0.209148
0.209148
0.208406
0.206741
0.203772
0.198876
0.191107
0.179045
0.160275
0.128879
0.0525255
0.053485
0.131252
0.163548
0.183
0.195593
0.203767
0.208961
0.212133
0.213925
0.214728
0.214729
0.213928
0.212137
0.208966
0.203772
0.195597
0.182999
0.163539
0.131233
0.0534555
0.0539917
0.132582
0.16544
0.185338
0.198286
0.206735
0.212132
0.215446
0.217325
0.21817
0.218171
0.217328
0.21545
0.212138
0.206741
0.198291
0.185338
0.165432
0.132563
0.0539619
0.0542518
0.133287
0.166464
0.186622
0.199784
0.2084
0.213922
0.217323
0.219258
0.220129
0.22013
0.219261
0.217328
0.213928
0.208407
0.199789
0.186623
0.166456
0.133269
0.0542219
0.0543611
0.13359
0.166909
0.187188
0.200448
0.209143
0.214724
0.218167
0.220128
0.221012
0.221013
0.220131
0.218172
0.214731
0.20915
0.200453
0.187188
0.166902
0.133571
0.054331
0.0543611
0.13359
0.166909
0.187188
0.200448
0.209143
0.214724
0.218167
0.220128
0.221012
0.221013
0.220131
0.218172
0.214731
0.20915
0.200453
0.187188
0.166902
0.133571
0.054331
0.0542518
0.133287
0.166464
0.186622
0.199784
0.2084
0.213922
0.217323
0.219258
0.220129
0.22013
0.219261
0.217328
0.213928
0.208407
0.199789
0.186623
0.166456
0.133269
0.0542219
0.0539917
0.132582
0.16544
0.185338
0.198286
0.206735
0.212132
0.215446
0.217325
0.21817
0.218171
0.217328
0.21545
0.212138
0.206741
0.198291
0.185338
0.165432
0.132563
0.0539619
0.053485
0.131252
0.163548
0.183
0.195593
0.203767
0.208961
0.212133
0.213925
0.214728
0.214729
0.213928
0.212137
0.208966
0.203772
0.195597
0.182999
0.163539
0.131233
0.0534555
0.0525548
0.128898
0.160284
0.179047
0.191105
0.198871
0.203768
0.206737
0.208404
0.209148
0.209148
0.208406
0.206741
0.203772
0.198876
0.191107
0.179045
0.160275
0.128879
0.0525255
0.0508949
0.124853
0.154843
0.172604
0.183905
0.191105
0.195594
0.198288
0.199787
0.200452
0.200452
0.199788
0.19829
0.195597
0.191107
0.183906
0.172601
0.154833
0.124833
0.050866
0.0479804
0.118016
0.145959
0.162329
0.172602
0.179044
0.182998
0.185336
0.186622
0.187187
0.187188
0.186622
0.185337
0.182999
0.179045
0.172601
0.162325
0.145947
0.117996
0.047952
0.0428432
0.106489
0.131495
0.145954
0.154836
0.160276
0.16354
0.165432
0.166456
0.166902
0.166902
0.166456
0.165432
0.163539
0.160274
0.154832
0.145947
0.131481
0.106466
0.0428147
0.0333203
0.086115
0.106482
0.118005
0.124839
0.128883
0.131237
0.132566
0.133271
0.133573
0.133573
0.13327
0.132564
0.131234
0.128879
0.124833
0.117995
0.106466
0.0860895
0.0332888
0.0151026
0.0333037
0.0428223
0.0479574
0.0508704
0.0525293
0.0534589
0.053965
0.0542245
0.0543332
0.0543327
0.054223
0.0539627
0.0534558
0.0525256
0.0508659
0.0479517
0.0428145
0.0332886
0.0150843
)
;

boundaryField
{
    leftWall
    {
        type            kqRWallFunction;
        value           nonuniform List<scalar> 
20
(
0.0151026
0.0333203
0.0428432
0.0479804
0.0508949
0.0525548
0.053485
0.0539917
0.0542518
0.0543611
0.0543611
0.0542518
0.0539917
0.053485
0.0525548
0.0508949
0.0479804
0.0428432
0.0333203
0.0151026
)
;
    }
    rightWall
    {
        type            kqRWallFunction;
        value           nonuniform List<scalar> 
20
(
0.0150843
0.0332888
0.0428147
0.047952
0.050866
0.0525255
0.0534555
0.0539619
0.0542219
0.054331
0.054331
0.0542219
0.0539619
0.0534555
0.0525255
0.050866
0.047952
0.0428147
0.0332888
0.0150843
)
;
    }
    topWall
    {
        type            kqRWallFunction;
        value           nonuniform List<scalar> 
20
(
0.0151026
0.0333037
0.0428223
0.0479574
0.0508704
0.0525293
0.0534589
0.053965
0.0542245
0.0543332
0.0543327
0.054223
0.0539627
0.0534558
0.0525256
0.0508659
0.0479517
0.0428145
0.0332886
0.0150843
)
;
    }
    bottomWall
    {
        type            kqRWallFunction;
        value           nonuniform List<scalar> 
20
(
0.0151026
0.0333037
0.0428223
0.0479574
0.0508704
0.0525293
0.0534589
0.053965
0.0542245
0.0543332
0.0543327
0.054223
0.0539627
0.0534558
0.0525256
0.0508659
0.0479517
0.0428145
0.0332886
0.0150843
)
;
    }
    frontAndBackPlanes
    {
        type            empty;
    }
}


// ************************************************************************* //
