/*--------------------------------*- C++ -*----------------------------------*\
| =========                 |                                                 |
| \\      /  F ield         | OpenFOAM: The Open Source CFD Toolbox           |
|  \\    /   O peration     | Version:  2506                                  |
|   \\  /    A nd           | Website:  www.openfoam.com                      |
|    \\/     M anipulation  |                                                 |
\*---------------------------------------------------------------------------*/
FoamFile
{
    version     2.0;
    format      ascii;
    arch        "LSB;label=32;scalar=64";
    class       volScalarField;
    location    "0.595795";
    object      nut;
}
// * * * * * * * * * * * * * * * * * * * * * * * * * * * * * * * * * * * * * //

dimensions      [0 2 -1 0 0 0 0];

internalField   nonuniform List<scalar> 
400
(
0.00017381
0.000305983
0.000364987
0.000399863
0.000422599
0.000437383
0.000446636
0.000452126
0.000455124
0.000456432
0.000456432
0.000455123
0.000452123
0.000446632
0.000437376
0.000422584
0.000399835
0.000364938
0.000305871
0.000173639
0.00030607
0.00262268
0.00361532
0.00410567
0.00438795
0.00455963
0.00466446
0.00472674
0.00476118
0.00477641
0.0047764
0.00476117
0.00472672
0.00466442
0.00455954
0.00438778
0.00410536
0.00361485
0.00262217
0.000305872
0.000365085
0.00361524
0.00550363
0.0065221
0.00711411
0.00747072
0.0076864
0.00781391
0.00788437
0.00791554
0.00791555
0.00788438
0.00781393
0.00768641
0.00747068
0.00711398
0.00652181
0.00550317
0.00361486
0.00036494
0.000399969
0.00410565
0.00652218
0.00791174
0.00874446
0.00925339
0.00956375
0.00974835
0.00985088
0.00989642
0.00989644
0.00985094
0.00974844
0.00956385
0.00925346
0.00874443
0.00791154
0.00652182
0.00410538
0.000399838
0.000422712
0.00438801
0.00711428
0.00874454
0.00974697
0.0103702
0.0107548
0.0109857
0.0111149
0.0111725
0.0111725
0.011115
0.0109859
0.010755
0.0103703
0.00974705
0.00874444
0.007114
0.0043878
0.000422587
0.0004375
0.00455973
0.00747092
0.0092535
0.0103702
0.0110745
0.0115141
0.0117804
0.0119304
0.0119976
0.0119976
0.0119305
0.0117806
0.0115144
0.0110747
0.0103704
0.00925349
0.00747071
0.00455957
0.000437378
0.000446752
0.00466457
0.0076866
0.00956382
0.0107548
0.0115141
0.0119923
0.0122842
0.0124495
0.0125239
0.012524
0.0124497
0.0122845
0.0119927
0.0115144
0.010755
0.00956388
0.00768645
0.00466444
0.000446633
0.000452241
0.00472684
0.00781408
0.00974837
0.0109856
0.0117803
0.0122841
0.0125933
0.0127692
0.0128486
0.0128486
0.0127694
0.0125936
0.0122845
0.0117807
0.0109859
0.00974848
0.00781396
0.00472674
0.000452123
0.000455238
0.00476128
0.00788451
0.00985085
0.0111147
0.0119302
0.0124493
0.0127691
0.0129515
0.013034
0.0130341
0.0129518
0.0127694
0.0124498
0.0119306
0.011115
0.00985099
0.00788442
0.00476119
0.000455121
0.000456546
0.0047765
0.00791567
0.00989635
0.0111723
0.0119973
0.0125236
0.0128484
0.0130339
0.0131179
0.0131179
0.0130341
0.0128487
0.0125241
0.0119978
0.0111726
0.00989651
0.00791559
0.00477641
0.000456429
0.000456546
0.0047765
0.00791567
0.00989635
0.0111723
0.0119973
0.0125236
0.0128484
0.0130339
0.0131179
0.0131179
0.0130341
0.0128487
0.0125241
0.0119978
0.0111726
0.00989651
0.00791559
0.00477641
0.000456429
0.000455238
0.00476128
0.00788451
0.00985085
0.0111147
0.0119302
0.0124493
0.0127691
0.0129515
0.013034
0.0130341
0.0129518
0.0127694
0.0124498
0.0119306
0.011115
0.00985099
0.00788442
0.00476119
0.000455121
0.000452241
0.00472684
0.00781408
0.00974837
0.0109856
0.0117803
0.0122841
0.0125933
0.0127692
0.0128486
0.0128486
0.0127694
0.0125936
0.0122845
0.0117807
0.0109859
0.00974848
0.00781396
0.00472674
0.000452123
0.000446752
0.00466457
0.0076866
0.00956383
0.0107548
0.0115141
0.0119923
0.0122842
0.0124495
0.0125239
0.012524
0.0124497
0.0122845
0.0119927
0.0115144
0.010755
0.00956388
0.00768645
0.00466444
0.000446633
0.0004375
0.00455973
0.00747092
0.0092535
0.0103702
0.0110745
0.0115141
0.0117804
0.0119304
0.0119976
0.0119976
0.0119305
0.0117806
0.0115144
0.0110747
0.0103704
0.00925349
0.00747071
0.00455957
0.000437378
0.000422712
0.00438801
0.00711428
0.00874454
0.00974698
0.0103702
0.0107548
0.0109857
0.0111149
0.0111725
0.0111725
0.011115
0.0109859
0.010755
0.0103703
0.00974705
0.00874444
0.007114
0.0043878
0.000422587
0.000399969
0.00410565
0.00652218
0.00791174
0.00874446
0.00925339
0.00956375
0.00974835
0.00985088
0.00989642
0.00989644
0.00985094
0.00974844
0.00956385
0.00925346
0.00874443
0.00791154
0.00652182
0.00410538
0.000399838
0.000365085
0.00361524
0.00550363
0.0065221
0.00711411
0.00747072
0.0076864
0.00781391
0.00788437
0.00791554
0.00791555
0.00788438
0.00781393
0.00768641
0.00747068
0.00711398
0.00652181
0.00550317
0.00361486
0.00036494
0.00030607
0.00262268
0.00361532
0.00410567
0.00438795
0.00455963
0.00466446
0.00472674
0.00476118
0.00477641
0.0047764
0.00476117
0.00472672
0.00466442
0.00455954
0.00438778
0.00410536
0.00361485
0.00262217
0.000305872
0.00017381
0.000305983
0.000364987
0.000399863
0.000422599
0.000437383
0.000446636
0.000452126
0.000455124
0.000456432
0.000456432
0.000455123
0.000452123
0.000446632
0.000437376
0.000422584
0.000399835
0.000364938
0.000305871
0.000173639
)
;

boundaryField
{
    leftWall
    {
        type            nutkWallFunction;
        blending        stepwise;
        value           nonuniform List<scalar> 
20
(
3.33345e-05
4.77991e-05
5.36039e-05
5.64455e-05
5.79847e-05
5.884e-05
5.93129e-05
5.95687e-05
5.96995e-05
5.97543e-05
5.97543e-05
5.96995e-05
5.95687e-05
5.93129e-05
5.884e-05
5.79847e-05
5.64455e-05
5.36039e-05
4.77991e-05
3.33345e-05
)
;
    }
    rightWall
    {
        type            nutkWallFunction;
        blending        stepwise;
        value           nonuniform List<scalar> 
20
(
3.89776e-05
5.60426e-05
6.28723e-05
6.621e-05
6.80165e-05
6.902e-05
6.95747e-05
6.98746e-05
7.0028e-05
7.00922e-05
7.00922e-05
7.0028e-05
6.98746e-05
6.95747e-05
6.902e-05
6.80165e-05
6.621e-05
6.28723e-05
5.60426e-05
3.89776e-05
)
;
    }
    topWall
    {
        type            nutkWallFunction;
        blending        stepwise;
        value           nonuniform List<scalar> 
20
(
3.89993e-05
5.60541e-05
6.28773e-05
6.62134e-05
6.80192e-05
6.90223e-05
6.95768e-05
6.98764e-05
7.00295e-05
7.00935e-05
7.00932e-05
7.00287e-05
6.98751e-05
6.9575e-05
6.90201e-05
6.80165e-05
6.62099e-05
6.28721e-05
5.60425e-05
3.89776e-05
)
;
    }
    bottomWall
    {
        type            nutkWallFunction;
        blending        stepwise;
        value           nonuniform List<scalar> 
20
(
3.89993e-05
5.60541e-05
6.28773e-05
6.62134e-05
6.80192e-05
6.90223e-05
6.95768e-05
6.98764e-05
7.00295e-05
7.00935e-05
7.00932e-05
7.00287e-05
6.98751e-05
6.9575e-05
6.90201e-05
6.80165e-05
6.62099e-05
6.28721e-05
5.60425e-05
3.89776e-05
)
;
    }
    frontAndBackPlanes
    {
        type            empty;
    }
}


// ************************************************************************* //
