/*--------------------------------*- C++ -*----------------------------------*\
| =========                 |                                                 |
| \\      /  F ield         | OpenFOAM: The Open Source CFD Toolbox           |
|  \\    /   O peration     | Version:  2506                                  |
|   \\  /    A nd           | Website:  www.openfoam.com                      |
|    \\/     M anipulation  |                                                 |
\*---------------------------------------------------------------------------*/
FoamFile
{
    version     2.0;
    format      ascii;
    arch        "LSB;label=32;scalar=64";
    class       surfaceScalarField;
    location    "0.595795";
    object      phi;
}
// * * * * * * * * * * * * * * * * * * * * * * * * * * * * * * * * * * * * * //

dimensions      [1 0 -1 0 0 0 0];

oriented        oriented;

internalField   nonuniform List<scalar> 
760
(
-9.44595e-06
-1.5669e-05
-8.51091e-07
-1.04922e-05
2.05105e-06
-7.50515e-06
3.37525e-06
-6.48619e-06
3.91204e-06
-5.59536e-06
4.01317e-06
-4.8529e-06
3.88718e-06
-4.25007e-06
3.65175e-06
-3.74776e-06
3.37066e-06
-3.31583e-06
3.07872e-06
-2.93533e-06
2.79449e-06
-2.59431e-06
2.52698e-06
-2.28563e-06
2.27943e-06
-2.00548e-06
2.0517e-06
-1.75264e-06
1.84188e-06
-1.52798e-06
1.6469e-06
-1.33337e-06
1.46569e-06
-1.17139e-06
1.3274e-06
-1.07088e-06
1.34573e-06
-1.1606e-06
-1.26463e-06
-4.98207e-06
-1.12762e-05
-2.63974e-06
-9.87114e-06
-1.53692e-07
-7.58823e-06
1.47058e-06
-6.26458e-06
2.48988e-06
-5.26403e-06
3.05502e-06
-4.47303e-06
3.29245e-06
-3.85192e-06
3.31332e-06
-3.35527e-06
3.20275e-06
-2.9438e-06
3.02009e-06
-2.59101e-06
2.80427e-06
-2.28039e-06
2.57949e-06
-2.00221e-06
2.35999e-06
-1.75139e-06
2.15387e-06
-1.52634e-06
1.96582e-06
-1.32829e-06
1.79994e-06
-1.16087e-06
1.66561e-06
-1.03335e-06
1.57425e-06
-9.77508e-07
1.45935e-06
-1.04468e-06
-1.00716e-06
-3.61947e-06
-8.91998e-06
-2.50996e-06
-8.20948e-06
-8.866e-07
-6.7716e-06
5.32476e-07
-5.68303e-06
1.604e-06
-4.79401e-06
2.31901e-06
-4.0623e-06
2.72471e-06
-3.47246e-06
2.89404e-06
-2.99777e-06
2.90063e-06
-2.60807e-06
2.80542e-06
-2.27916e-06
2.65343e-06
-1.99423e-06
2.47547e-06
-1.74262e-06
2.29146e-06
-1.51844e-06
2.11375e-06
-1.31966e-06
1.94982e-06
-1.1474e-06
1.80447e-06
-1.00572e-06
1.68039e-06
-9.03674e-07
1.56722e-06
-8.61215e-07
1.41913e-06
-8.94931e-07
-8.63582e-07
-4.05807e-06
-7.11974e-06
-2.83458e-06
-6.74702e-06
-1.36497e-06
-5.77383e-06
-1.71141e-09
-4.94711e-06
1.09656e-06
-4.22181e-06
1.88406e-06
-3.5947e-06
2.37919e-06
-3.06981e-06
2.63509e-06
-2.63764e-06
2.71552e-06
-2.28018e-06
2.67896e-06
-1.97961e-06
2.57193e-06
-1.72178e-06
2.42822e-06
-1.49684e-06
2.2707e-06
-1.29897e-06
2.11405e-06
-1.1259e-06
1.96701e-06
-9.78388e-07
1.83407e-06
-8.59908e-07
1.7152e-06
-7.77368e-07
1.60118e-06
-7.42955e-07
1.47371e-06
-7.65142e-07
-7.52277e-07
-4.51181e-06
-5.56698e-06
-3.18098e-06
-5.42045e-06
-1.69273e-06
-4.76e-06
-3.142e-07
-4.14999e-06
8.14683e-07
-3.58384e-06
1.64608e-06
-3.0731e-06
2.19169e-06
-2.63036e-06
2.49747e-06
-2.25642e-06
2.62223e-06
-1.94278e-06
2.62243e-06
-1.67811e-06
2.54473e-06
-1.45196e-06
2.42407e-06
-1.25632e-06
2.28473e-06
-1.08613e-06
2.14244e-06
-9.39162e-07
2.00644e-06
-8.15835e-07
1.88099e-06
-7.18759e-07
1.76566e-06
-6.52861e-07
1.65404e-06
-6.26046e-07
1.53587e-06
-6.44043e-07
-6.41603e-07
-4.84314e-06
-4.21992e-06
-3.41822e-06
-4.19165e-06
-1.885e-06
-3.75594e-06
-4.76257e-07
-3.32283e-06
6.80079e-07
-2.90075e-06
1.53923e-06
-2.50578e-06
2.11293e-06
-2.15276e-06
2.44571e-06
-1.8474e-06
2.59474e-06
-1.58731e-06
2.61563e-06
-1.36629e-06
2.55496e-06
-1.17742e-06
2.44807e-06
-1.01484e-06
2.31973e-06
-8.74572e-07
2.18602e-06
-7.54739e-07
2.05618e-06
-6.55486e-07
1.93422e-06
-5.78636e-07
1.81962e-06
-5.27565e-07
1.70729e-06
-5.07493e-07
1.58923e-06
-5.22514e-07
-5.25544e-07
-5.09766e-06
-3.03455e-06
-3.57658e-06
-3.05419e-06
-1.98882e-06
-2.77685e-06
-5.45449e-07
-2.48526e-06
6.35304e-07
-2.18945e-06
1.51312e-06
-1.90402e-06
2.10223e-06
-1.64233e-06
2.44833e-06
-1.41132e-06
2.60892e-06
-1.21175e-06
2.63969e-06
-1.04081e-06
2.58733e-06
-8.94427e-07
2.4873e-06
-7.68718e-07
2.36449e-06
-6.60862e-07
2.23491e-06
-5.69452e-07
2.10763e-06
-4.94495e-07
1.98635e-06
-4.3718e-07
1.87045e-06
-3.99713e-07
1.75543e-06
-3.85495e-07
1.63429e-06
-3.97454e-07
-4.02494e-07
-5.28629e-06
-1.96306e-06
-3.68367e-06
-1.99218e-06
-2.0434e-06
-1.82875e-06
-5.66392e-07
-1.65025e-06
6.35803e-07
-1.46379e-06
1.52712e-06
-1.27967e-06
2.12492e-06
-1.10758e-06
2.47698e-06
-9.53298e-07
2.64202e-06
-8.18493e-07
2.67636e-06
-7.02242e-07
2.62698e-06
-6.02421e-07
2.52947e-06
-5.16763e-07
2.40865e-06
-4.4352e-07
2.28038e-06
-3.81776e-07
2.15347e-06
-3.31495e-07
2.03136e-06
-2.93381e-07
1.9133e-06
-2.68759e-07
1.79505e-06
-2.59689e-07
1.66995e-06
-2.68095e-07
-2.72672e-07
-5.41076e-06
-9.63897e-07
-3.75099e-06
-9.82681e-07
-2.07085e-06
-9.06984e-07
-5.67539e-07
-8.22469e-07
6.51e-07
-7.326e-07
1.55169e-06
-6.42585e-07
2.15442e-06
-5.57445e-07
2.50889e-06
-4.80363e-07
2.67509e-06
-4.12525e-07
2.71005e-06
-3.53756e-07
2.6611e-06
-3.03189e-07
2.56394e-06
-2.59799e-07
2.44336e-06
-2.22764e-07
2.31505e-06
-1.91637e-07
2.18761e-06
-1.66391e-07
2.06427e-06
-1.47351e-07
1.94417e-06
-1.35138e-07
1.82315e-06
-1.3073e-07
1.69462e-06
-1.35079e-07
-1.37702e-07
-5.47259e-06
7.00302e-13
-3.78363e-06
9.19447e-13
-2.08228e-06
1.03499e-12
-5.64664e-07
1.16957e-12
6.62743e-07
1.34344e-12
1.56835e-06
1.55338e-12
2.17339e-06
1.78713e-12
2.52868e-06
2.0382e-12
2.69495e-06
2.26502e-12
2.72971e-06
2.38487e-12
2.68052e-06
2.29124e-12
2.58314e-06
2.09708e-12
2.46234e-06
1.85058e-12
2.33372e-06
1.60693e-12
2.20577e-06
1.38241e-12
2.0816e-06
1.1727e-12
1.96029e-06
9.7066e-13
1.83769e-06
7.718e-13
1.70721e-06
5.81284e-13
3.49438e-13
-5.47259e-06
9.63898e-07
-3.78363e-06
9.82682e-07
-2.08228e-06
9.06986e-07
-5.64664e-07
8.22471e-07
6.62744e-07
7.32603e-07
1.56835e-06
6.42588e-07
2.17339e-06
5.57448e-07
2.52868e-06
4.80367e-07
2.69495e-06
4.12529e-07
2.72971e-06
3.53761e-07
2.68052e-06
3.03193e-07
2.58314e-06
2.59803e-07
2.46234e-06
2.22768e-07
2.33372e-06
1.9164e-07
2.20577e-06
1.66393e-07
2.0816e-06
1.47354e-07
1.96029e-06
1.3514e-07
1.83769e-06
1.30731e-07
1.70721e-06
1.3508e-07
1.37703e-07
-5.41076e-06
1.96306e-06
-3.75099e-06
1.99218e-06
-2.07085e-06
1.82875e-06
-5.67538e-07
1.65026e-06
6.51e-07
1.46379e-06
1.5517e-06
1.27967e-06
2.15442e-06
1.10759e-06
2.50889e-06
9.53302e-07
2.67509e-06
8.18497e-07
2.71005e-06
7.02246e-07
2.6611e-06
6.02424e-07
2.56394e-06
5.16767e-07
2.44336e-06
4.43524e-07
2.31505e-06
3.81779e-07
2.18761e-06
3.31497e-07
2.06427e-06
2.93383e-07
1.94416e-06
2.6876e-07
1.82314e-06
2.59691e-07
1.69462e-06
2.68096e-07
2.72672e-07
-5.28629e-06
3.03455e-06
-3.68367e-06
3.05419e-06
-2.0434e-06
2.77685e-06
-5.66392e-07
2.48526e-06
6.35804e-07
2.18945e-06
1.52713e-06
1.90402e-06
2.12492e-06
1.64233e-06
2.47698e-06
1.41133e-06
2.64202e-06
1.21175e-06
2.67636e-06
1.04081e-06
2.62698e-06
8.9443e-07
2.52947e-06
7.6872e-07
2.40864e-06
6.60864e-07
2.28038e-06
5.69454e-07
2.15347e-06
4.94497e-07
2.03136e-06
4.37182e-07
1.9133e-06
3.99715e-07
1.79505e-06
3.85496e-07
1.66995e-06
3.97455e-07
4.02495e-07
-5.09766e-06
4.21992e-06
-3.57658e-06
4.19165e-06
-1.98882e-06
3.75594e-06
-5.45448e-07
3.32283e-06
6.35305e-07
2.90075e-06
1.51312e-06
2.50578e-06
2.10223e-06
2.15276e-06
2.44833e-06
1.8474e-06
2.60892e-06
1.58732e-06
2.6397e-06
1.36629e-06
2.58733e-06
1.17742e-06
2.4873e-06
1.01484e-06
2.36449e-06
8.74573e-07
2.23491e-06
7.54741e-07
2.10763e-06
6.55487e-07
1.98635e-06
5.78637e-07
1.87045e-06
5.27566e-07
1.75543e-06
5.07494e-07
1.63429e-06
5.22515e-07
5.25544e-07
-4.84314e-06
5.56698e-06
-3.41822e-06
5.42045e-06
-1.885e-06
4.76e-06
-4.76256e-07
4.14999e-06
6.8008e-07
3.58384e-06
1.53923e-06
3.0731e-06
2.11293e-06
2.63036e-06
2.44571e-06
2.25642e-06
2.59474e-06
1.94278e-06
2.61563e-06
1.67811e-06
2.55497e-06
1.45196e-06
2.44807e-06
1.25633e-06
2.31973e-06
1.08613e-06
2.18602e-06
9.39163e-07
2.05618e-06
8.15835e-07
1.93422e-06
7.1876e-07
1.81962e-06
6.52862e-07
1.70728e-06
6.26047e-07
1.58923e-06
6.44043e-07
6.41604e-07
-4.51181e-06
7.11974e-06
-3.18098e-06
6.74702e-06
-1.69273e-06
5.77383e-06
-3.14198e-07
4.94711e-06
8.14685e-07
4.22181e-06
1.64608e-06
3.5947e-06
2.19169e-06
3.06981e-06
2.49748e-06
2.63764e-06
2.62223e-06
2.28018e-06
2.62243e-06
1.97961e-06
2.54473e-06
1.72178e-06
2.42406e-06
1.49684e-06
2.28473e-06
1.29897e-06
2.14244e-06
1.1259e-06
2.00644e-06
9.78389e-07
1.88099e-06
8.59909e-07
1.76566e-06
7.77368e-07
1.65404e-06
7.42955e-07
1.53587e-06
7.65142e-07
7.52277e-07
-4.05807e-06
8.91998e-06
-2.83457e-06
8.20948e-06
-1.36497e-06
6.7716e-06
-1.70946e-09
5.68303e-06
1.09656e-06
4.79401e-06
1.88406e-06
4.0623e-06
2.37919e-06
3.47246e-06
2.6351e-06
2.99777e-06
2.71552e-06
2.60807e-06
2.67896e-06
2.27916e-06
2.57193e-06
1.99423e-06
2.42821e-06
1.74262e-06
2.2707e-06
1.51844e-06
2.11405e-06
1.31966e-06
1.96701e-06
1.1474e-06
1.83406e-06
1.00572e-06
1.7152e-06
9.03674e-07
1.60118e-06
8.61214e-07
1.47371e-06
8.94931e-07
8.63581e-07
-3.61947e-06
1.12762e-05
-2.50996e-06
9.87114e-06
-8.86598e-07
7.58822e-06
5.32478e-07
6.26458e-06
1.604e-06
5.26403e-06
2.31901e-06
4.47303e-06
2.72471e-06
3.85192e-06
2.89404e-06
3.35527e-06
2.90063e-06
2.9438e-06
2.80542e-06
2.59101e-06
2.65343e-06
2.28039e-06
2.47546e-06
2.00221e-06
2.29146e-06
1.75139e-06
2.11375e-06
1.52634e-06
1.94981e-06
1.32829e-06
1.80447e-06
1.16087e-06
1.68038e-06
1.03335e-06
1.56722e-06
9.77508e-07
1.41913e-06
1.04468e-06
1.00716e-06
-4.98207e-06
1.5669e-05
-2.63974e-06
1.04922e-05
-1.5369e-07
7.50514e-06
1.47058e-06
6.48619e-06
2.48988e-06
5.59536e-06
3.05502e-06
4.8529e-06
3.29245e-06
4.25007e-06
3.31332e-06
3.74776e-06
3.20275e-06
3.31583e-06
3.02009e-06
2.93533e-06
2.80427e-06
2.59431e-06
2.57949e-06
2.28563e-06
2.35999e-06
2.00548e-06
2.15387e-06
1.75264e-06
1.96582e-06
1.52798e-06
1.79994e-06
1.33337e-06
1.6656e-06
1.17139e-06
1.57424e-06
1.07088e-06
1.45935e-06
1.1606e-06
1.26463e-06
-9.44595e-06
-8.5109e-07
2.05106e-06
3.37526e-06
3.91204e-06
4.01318e-06
3.88718e-06
3.65175e-06
3.37066e-06
3.07872e-06
2.79449e-06
2.52698e-06
2.27943e-06
2.0517e-06
1.84188e-06
1.6469e-06
1.46568e-06
1.3274e-06
1.34573e-06
)
;

boundaryField
{
    leftWall
    {
        type            calculated;
        value           nonuniform List<scalar> 
20
(
1.45189e-05
3.55696e-06
3.72482e-06
4.47373e-06
5.02373e-06
5.46325e-06
5.81943e-06
6.08743e-06
6.26606e-06
6.35547e-06
6.35547e-06
6.26606e-06
6.08743e-06
5.81943e-06
5.46325e-06
5.02373e-06
4.47373e-06
3.72482e-06
3.55696e-06
1.45189e-05
)
;
    }
    rightWall
    {
        type            calculated;
        value           nonuniform List<scalar> 
20
(
1.30521e-06
1.2022e-06
1.27619e-06
1.36335e-06
1.42643e-06
1.47466e-06
1.51293e-06
1.54197e-06
1.56159e-06
1.5715e-06
1.5715e-06
1.56159e-06
1.54197e-06
1.51293e-06
1.47466e-06
1.42643e-06
1.36335e-06
1.27619e-06
1.20219e-06
1.3052e-06
)
;
    }
    topWall
    {
        type            calculated;
        value           nonuniform List<scalar> 
20
(
1.49346e-05
5.25777e-06
6.79056e-06
6.62674e-06
6.02871e-06
5.37757e-06
4.76915e-06
4.2245e-06
3.7423e-06
3.31352e-06
2.92908e-06
2.58244e-06
2.26986e-06
1.98993e-06
1.74317e-06
1.53131e-06
1.3542e-06
1.20996e-06
1.1426e-06
1.30521e-06
)
;
    }
    bottomWall
    {
        type            calculated;
        value           nonuniform List<scalar> 
20
(
1.49346e-05
5.25777e-06
6.79056e-06
6.62674e-06
6.02871e-06
5.37757e-06
4.76915e-06
4.2245e-06
3.7423e-06
3.31352e-06
2.92908e-06
2.58244e-06
2.26986e-06
1.98993e-06
1.74317e-06
1.53131e-06
1.3542e-06
1.20996e-06
1.1426e-06
1.3052e-06
)
;
    }
    frontAndBackPlanes
    {
        type            empty;
    }
}


// ************************************************************************* //
