/*--------------------------------*- C++ -*----------------------------------*\
| =========                 |                                                 |
| \\      /  F ield         | OpenFOAM: The Open Source CFD Toolbox           |
|  \\    /   O peration     | Version:  2506                                  |
|   \\  /    A nd           | Website:  www.openfoam.com                      |
|    \\/     M anipulation  |                                                 |
\*---------------------------------------------------------------------------*/
FoamFile
{
    version     2.0;
    format      ascii;
    arch        "LSB;label=32;scalar=64";
    class       volScalarField;
    location    "0.595795";
    object      T;
}
// * * * * * * * * * * * * * * * * * * * * * * * * * * * * * * * * * * * * * //

dimensions      [0 0 0 1 0 0 0];

internalField   nonuniform List<scalar> 
400
(
285.139
276.071
274.39
273.756
273.428
273.243
273.138
273.078
273.044
273.025
273.014
273.008
273.004
273.002
273.001
273.001
273
273
273
273
282.558
276.879
275.118
274.23
273.727
273.431
273.254
273.148
273.086
273.05
273.028
273.016
273.009
273.005
273.003
273.002
273.001
273
273
273
281.873
277.016
275.355
274.44
273.886
273.541
273.327
273.196
273.116
273.068
273.04
273.023
273.013
273.007
273.004
273.002
273.001
273.001
273
273
281.651
277.066
275.468
274.559
273.986
273.618
273.382
273.233
273.14
273.084
273.049
273.029
273.017
273.01
273.006
273.003
273.002
273.001
273.001
273
281.558
277.092
275.53
274.63
274.051
273.671
273.422
273.261
273.16
273.096
273.057
273.034
273.02
273.012
273.007
273.004
273.002
273.001
273.001
273
281.512
277.107
275.566
274.673
274.093
273.706
273.45
273.282
273.174
273.106
273.064
273.038
273.022
273.013
273.008
273.004
273.003
273.001
273.001
273
281.488
277.116
275.586
274.698
274.118
273.729
273.468
273.296
273.184
273.113
273.069
273.041
273.024
273.014
273.008
273.005
273.003
273.002
273.001
273
281.475
277.12
275.597
274.713
274.133
273.743
273.48
273.305
273.191
273.118
273.072
273.043
273.026
273.015
273.009
273.005
273.003
273.002
273.001
273
281.469
277.123
275.603
274.721
274.142
273.751
273.487
273.311
273.195
273.121
273.074
273.045
273.027
273.016
273.009
273.006
273.003
273.002
273.001
273
281.466
277.124
275.606
274.724
274.146
273.754
273.49
273.313
273.197
273.123
273.075
273.046
273.027
273.016
273.01
273.006
273.003
273.002
273.001
273
281.466
277.124
275.606
274.724
274.146
273.754
273.49
273.313
273.197
273.123
273.075
273.046
273.027
273.016
273.01
273.006
273.003
273.002
273.001
273
281.469
277.123
275.603
274.721
274.142
273.751
273.487
273.311
273.195
273.121
273.074
273.045
273.027
273.016
273.009
273.006
273.003
273.002
273.001
273
281.475
277.12
275.597
274.713
274.133
273.743
273.48
273.305
273.191
273.118
273.072
273.043
273.026
273.015
273.009
273.005
273.003
273.002
273.001
273
281.488
277.116
275.586
274.698
274.118
273.729
273.468
273.296
273.184
273.113
273.069
273.041
273.024
273.014
273.008
273.005
273.003
273.002
273.001
273
281.512
277.107
275.566
274.673
274.093
273.706
273.45
273.282
273.174
273.106
273.064
273.038
273.022
273.013
273.008
273.004
273.003
273.001
273.001
273
281.558
277.092
275.53
274.63
274.051
273.671
273.422
273.261
273.16
273.096
273.057
273.034
273.02
273.012
273.007
273.004
273.002
273.001
273.001
273
281.651
277.066
275.468
274.559
273.986
273.618
273.382
273.233
273.14
273.084
273.049
273.029
273.017
273.01
273.006
273.003
273.002
273.001
273.001
273
281.873
277.016
275.355
274.44
273.886
273.541
273.327
273.196
273.116
273.068
273.04
273.023
273.013
273.007
273.004
273.002
273.001
273.001
273
273
282.558
276.879
275.118
274.23
273.727
273.431
273.254
273.148
273.086
273.05
273.028
273.016
273.009
273.005
273.003
273.002
273.001
273
273
273
285.139
276.071
274.39
273.756
273.428
273.243
273.138
273.078
273.044
273.025
273.014
273.008
273.004
273.002
273.001
273.001
273
273
273
273
)
;

boundaryField
{
    leftWall
    {
        type            fixedValue;
        value           uniform 373;
    }
    rightWall
    {
        type            fixedValue;
        value           uniform 273;
    }
    topWall
    {
        type            fixedValue;
        value           uniform 273;
    }
    bottomWall
    {
        type            fixedValue;
        value           uniform 273;
    }
    frontAndBackPlanes
    {
        type            empty;
    }
}


// ************************************************************************* //
