/*--------------------------------*- C++ -*----------------------------------*\
| =========                 |                                                 |
| \\      /  F ield         | OpenFOAM: The Open Source CFD Toolbox           |
|  \\    /   O peration     | Version:  2506                                  |
|   \\  /    A nd           | Website:  www.openfoam.com                      |
|    \\/     M anipulation  |                                                 |
\*---------------------------------------------------------------------------*/
FoamFile
{
    version     2.0;
    format      ascii;
    arch        "LSB;label=32;scalar=64";
    class       volScalarField;
    location    "0.446496";
    object      alphat;
}
// * * * * * * * * * * * * * * * * * * * * * * * * * * * * * * * * * * * * * //

dimensions      [1 -1 -1 0 0 0 0];

internalField   nonuniform List<scalar> 
200
(
0.199345
0.349318
0.419437
0.45873
0.48151
0.494183
0.500886
0.504271
0.505879
0.506514
0.348858
3.00999
4.09312
4.59987
4.86831
5.01458
5.09332
5.13444
5.1547
5.16295
0.418785
4.09121
6.05829
7.05349
7.58652
7.87657
8.03295
8.11512
8.15594
8.17268
0.457973
4.5968
7.05189
8.37013
9.09857
9.50233
9.72298
9.84028
9.89916
9.92348
0.480688
4.86454
7.58381
9.09731
9.95536
10.44
10.7089
10.8536
10.9269
10.9574
0.493321
5.01038
7.87314
9.50019
10.4391
10.9773
11.2796
11.444
11.5281
11.5633
0.500001
5.08887
8.02906
9.72026
10.7073
11.2789
11.6029
11.7806
11.8721
11.9105
0.503373
5.12985
8.11096
9.83719
10.8515
11.4429
11.7802
11.9662
12.0623
12.1029
0.504976
5.15003
8.15164
9.89585
10.9246
11.5267
11.8713
12.062
12.161
12.2028
0.50561
5.15825
8.1683
9.92006
10.955
11.5617
11.9096
12.1024
12.2026
12.245
0.50561
5.15825
8.1683
9.92006
10.955
11.5617
11.9096
12.1024
12.2026
12.245
0.504976
5.15003
8.15164
9.89585
10.9246
11.5267
11.8713
12.062
12.161
12.2028
0.503373
5.12985
8.11096
9.83719
10.8515
11.4429
11.7802
11.9662
12.0623
12.1029
0.500001
5.08887
8.02906
9.72026
10.7073
11.2789
11.6029
11.7806
11.8721
11.9105
0.493321
5.01038
7.87314
9.50019
10.4391
10.9773
11.2796
11.444
11.5281
11.5633
0.480688
4.86454
7.58381
9.09731
9.95536
10.44
10.7089
10.8536
10.9269
10.9574
0.457973
4.5968
7.0519
8.37013
9.09857
9.50233
9.72298
9.84029
9.89916
9.92348
0.418785
4.09121
6.05829
7.05349
7.58652
7.87657
8.03295
8.11512
8.15594
8.17268
0.348858
3.00999
4.09312
4.59987
4.86831
5.01458
5.09332
5.13444
5.1547
5.16295
0.199345
0.349318
0.419437
0.45873
0.48151
0.494183
0.500886
0.504271
0.505878
0.506514
)
;

boundaryField
{
    leftWall
    {
        type            compressible::alphatWallFunction;
        value           nonuniform List<scalar> 
20
(
0.0470087
0.064027
0.0707113
0.073682
0.0751
0.0757844
0.0761118
0.0762659
0.0763358
0.0763626
0.0763626
0.0763358
0.0762659
0.0761118
0.0757844
0.0751
0.073682
0.0707113
0.064027
0.0470087
)
;
    }
    rightWall
    {
        type            compressible::alphatWallFunction;
        value           nonuniform List<scalar> 0();
    }
    topWall
    {
        type            compressible::alphatWallFunction;
        value           nonuniform List<scalar> 10(0.0566771 0.0772569 0.0853203 0.0889005 0.0906086 0.0914325 0.0918264 0.0920114 0.0920949 0.0921267);
    }
    bottomWall
    {
        type            compressible::alphatWallFunction;
        value           nonuniform List<scalar> 10(0.0566771 0.0772569 0.0853203 0.0889005 0.0906086 0.0914325 0.0918264 0.0920114 0.0920949 0.0921267);
    }
    frontAndBackPlanes
    {
        type            empty;
    }
    procBoundary1to0
    {
        type            processor;
        value           nonuniform List<scalar> 
20
(
0.506512
5.16295
8.17271
9.92353
10.9575
11.5634
11.9106
12.103
12.2029
12.2451
12.2451
12.2029
12.103
11.9106
11.5634
10.9575
9.92352
8.1727
5.16295
0.506513
)
;
    }
}


// ************************************************************************* //
