/*--------------------------------*- C++ -*----------------------------------*\
| =========                 |                                                 |
| \\      /  F ield         | OpenFOAM: The Open Source CFD Toolbox           |
|  \\    /   O peration     | Version:  2506                                  |
|   \\  /    A nd           | Website:  www.openfoam.com                      |
|    \\/     M anipulation  |                                                 |
\*---------------------------------------------------------------------------*/
FoamFile
{
    version     2.0;
    format      ascii;
    arch        "LSB;label=32;scalar=64";
    class       volScalarField;
    location    "0.446496";
    object      rho;
}
// * * * * * * * * * * * * * * * * * * * * * * * * * * * * * * * * * * * * * //

dimensions      [1 -3 0 0 0 0 0];

internalField   nonuniform List<scalar> 
200
(
998.541
1000.76
1001.12
1001.24
1001.3
1001.33
1001.34
1001.35
1001.36
1001.36
999.126
1000.54
1000.95
1001.15
1001.25
1001.3
1001.33
1001.34
1001.35
1001.36
999.274
1000.5
1000.9
1001.1
1001.22
1001.28
1001.32
1001.34
1001.35
1001.35
999.317
1000.48
1000.87
1001.08
1001.2
1001.27
1001.31
1001.33
1001.35
1001.35
999.334
1000.48
1000.86
1001.06
1001.19
1001.26
1001.3
1001.33
1001.34
1001.35
999.341
1000.47
1000.85
1001.05
1001.18
1001.25
1001.3
1001.33
1001.34
1001.35
999.344
1000.47
1000.84
1001.05
1001.18
1001.25
1001.3
1001.32
1001.34
1001.35
999.345
1000.47
1000.84
1001.05
1001.17
1001.25
1001.3
1001.32
1001.34
1001.35
999.346
1000.47
1000.84
1001.05
1001.17
1001.25
1001.3
1001.32
1001.34
1001.35
999.346
1000.47
1000.84
1001.05
1001.17
1001.25
1001.3
1001.32
1001.34
1001.35
999.346
1000.47
1000.84
1001.05
1001.17
1001.25
1001.3
1001.32
1001.34
1001.35
999.346
1000.47
1000.84
1001.05
1001.17
1001.25
1001.3
1001.32
1001.34
1001.35
999.345
1000.47
1000.84
1001.05
1001.17
1001.25
1001.3
1001.32
1001.34
1001.35
999.344
1000.47
1000.84
1001.05
1001.18
1001.25
1001.3
1001.32
1001.34
1001.35
999.341
1000.47
1000.85
1001.05
1001.18
1001.25
1001.3
1001.33
1001.34
1001.35
999.334
1000.48
1000.86
1001.06
1001.19
1001.26
1001.3
1001.33
1001.34
1001.35
999.317
1000.48
1000.87
1001.08
1001.2
1001.27
1001.31
1001.33
1001.35
1001.35
999.274
1000.5
1000.9
1001.1
1001.22
1001.28
1001.32
1001.34
1001.35
1001.35
999.126
1000.54
1000.95
1001.15
1001.25
1001.3
1001.33
1001.34
1001.35
1001.36
998.541
1000.76
1001.12
1001.24
1001.3
1001.33
1001.34
1001.35
1001.36
1001.36
)
;

boundaryField
{
    leftWall
    {
        type            calculated;
        value           uniform 973.493;
    }
    rightWall
    {
        type            calculated;
        value           nonuniform List<scalar> 0();
    }
    topWall
    {
        type            calculated;
        value           uniform 1001.36;
    }
    bottomWall
    {
        type            calculated;
        value           uniform 1001.36;
    }
    frontAndBackPlanes
    {
        type            empty;
    }
    procBoundary1to0
    {
        type            processor;
        value           nonuniform List<scalar> 
20
(
1001.36
1001.36
1001.36
1001.36
1001.36
1001.35
1001.35
1001.35
1001.35
1001.35
1001.35
1001.35
1001.35
1001.35
1001.35
1001.36
1001.36
1001.36
1001.36
1001.36
)
;
    }
}


// ************************************************************************* //
