/*--------------------------------*- C++ -*----------------------------------*\
| =========                 |                                                 |
| \\      /  F ield         | OpenFOAM: The Open Source CFD Toolbox           |
|  \\    /   O peration     | Version:  2506                                  |
|   \\  /    A nd           | Website:  www.openfoam.com                      |
|    \\/     M anipulation  |                                                 |
\*---------------------------------------------------------------------------*/
FoamFile
{
    version     2.0;
    format      ascii;
    arch        "LSB;label=32;scalar=64";
    class       volScalarField;
    location    "0.446496";
    object      T;
}
// * * * * * * * * * * * * * * * * * * * * * * * * * * * * * * * * * * * * * //

dimensions      [0 0 0 1 0 0 0];

internalField   nonuniform List<scalar> 
200
(
284.318
275.423
273.966
273.472
273.239
273.122
273.062
273.031
273.016
273.008
281.993
276.308
274.653
273.873
273.465
273.247
273.13
273.068
273.035
273.018
281.404
276.482
274.883
274.053
273.587
273.323
273.175
273.094
273.05
273.026
281.229
276.549
274.991
274.153
273.662
273.374
273.208
273.113
273.061
273.033
281.164
276.58
275.047
274.209
273.709
273.408
273.231
273.128
273.07
273.038
281.137
276.596
275.075
274.24
273.736
273.429
273.246
273.138
273.076
273.041
281.124
276.604
275.09
274.257
273.751
273.442
273.255
273.144
273.08
273.044
281.118
276.607
275.097
274.265
273.76
273.449
273.26
273.148
273.083
273.046
281.115
276.609
275.101
274.27
273.764
273.453
273.263
273.15
273.084
273.047
281.114
276.61
275.102
274.271
273.766
273.454
273.264
273.151
273.085
273.047
281.114
276.61
275.102
274.271
273.766
273.454
273.264
273.151
273.085
273.047
281.115
276.609
275.101
274.27
273.764
273.453
273.263
273.15
273.084
273.047
281.118
276.607
275.097
274.265
273.76
273.449
273.26
273.148
273.083
273.046
281.124
276.604
275.09
274.257
273.751
273.442
273.255
273.144
273.08
273.044
281.137
276.596
275.075
274.24
273.736
273.429
273.246
273.138
273.076
273.041
281.164
276.58
275.047
274.209
273.709
273.408
273.231
273.128
273.07
273.038
281.229
276.549
274.991
274.153
273.662
273.374
273.208
273.113
273.061
273.033
281.404
276.482
274.883
274.053
273.587
273.323
273.175
273.094
273.05
273.026
281.993
276.308
274.653
273.873
273.465
273.247
273.13
273.068
273.035
273.018
284.318
275.423
273.966
273.472
273.239
273.122
273.062
273.031
273.016
273.008
)
;

boundaryField
{
    leftWall
    {
        type            fixedValue;
        value           uniform 373;
    }
    rightWall
    {
        type            fixedValue;
        value           nonuniform List<scalar> 0();
    }
    topWall
    {
        type            fixedValue;
        value           uniform 273;
    }
    bottomWall
    {
        type            fixedValue;
        value           uniform 273;
    }
    frontAndBackPlanes
    {
        type            empty;
    }
    procBoundary1to0
    {
        type            processor;
        value           nonuniform List<scalar> 
20
(
273.004
273.009
273.014
273.017
273.02
273.022
273.024
273.025
273.026
273.026
273.026
273.026
273.025
273.024
273.022
273.02
273.017
273.014
273.009
273.004
)
;
    }
}


// ************************************************************************* //
