/*--------------------------------*- C++ -*----------------------------------*\
| =========                 |                                                 |
| \\      /  F ield         | OpenFOAM: The Open Source CFD Toolbox           |
|  \\    /   O peration     | Version:  2506                                  |
|   \\  /    A nd           | Website:  www.openfoam.com                      |
|    \\/     M anipulation  |                                                 |
\*---------------------------------------------------------------------------*/
FoamFile
{
    version     2.0;
    format      ascii;
    arch        "LSB;label=32;scalar=64";
    class       volVectorField;
    location    "0.446496";
    object      U;
}
// * * * * * * * * * * * * * * * * * * * * * * * * * * * * * * * * * * * * * //

dimensions      [0 1 -1 0 0 0 0];

internalField   nonuniform List<vector> 
200
(
(-0.000249513 -0.000311481 0)
(9.39652e-06 -0.000164302 0)
(1.38395e-05 -0.000124873 0)
(2.77072e-05 -0.000108552 0)
(3.22646e-05 -9.41088e-05 0)
(3.22681e-05 -8.20071e-05 0)
(3.03239e-05 -7.19276e-05 0)
(2.77021e-05 -6.32543e-05 0)
(2.49449e-05 -5.55912e-05 0)
(2.22965e-05 -4.87222e-05 0)
(-0.00012198 -8.23091e-05 0)
(-2.23518e-05 -8.44557e-05 0)
(-5.14403e-06 -6.46428e-05 0)
(1.16158e-05 -5.40711e-05 0)
(2.17177e-05 -4.61009e-05 0)
(2.64468e-05 -3.99658e-05 0)
(2.77075e-05 -3.50987e-05 0)
(2.70069e-05 -3.10312e-05 0)
(2.53177e-05 -2.74675e-05 0)
(2.32194e-05 -2.42575e-05 0)
(-0.000103541 -7.51395e-05 0)
(-2.50503e-05 -7.22473e-05 0)
(-1.13355e-05 -5.83992e-05 0)
(4.1163e-06 -4.86507e-05 0)
(1.50974e-05 -4.11596e-05 0)
(2.15489e-05 -3.52766e-05 0)
(2.43718e-05 -3.06336e-05 0)
(2.48489e-05 -2.6844e-05 0)
(2.39718e-05 -2.36152e-05 0)
(2.24083e-05 -2.07694e-05 0)
(-0.000113608 -6.08346e-05 0)
(-2.93297e-05 -6.01735e-05 0)
(-1.50786e-05 -5.09899e-05 0)
(3.11045e-07 -4.34874e-05 0)
(1.1847e-05 -3.71773e-05 0)
(1.91562e-05 -3.19437e-05 0)
(2.27985e-05 -2.76664e-05 0)
(2.3932e-05 -2.41332e-05 0)
(2.35316e-05 -2.11342e-05 0)
(2.2293e-05 -1.8517e-05 0)
(-0.000124257 -4.695e-05 0)
(-3.28916e-05 -4.78991e-05 0)
(-1.75139e-05 -4.22379e-05 0)
(-1.56578e-06 -3.69179e-05 0)
(1.05148e-05 -3.20335e-05 0)
(1.83539e-05 -2.77329e-05 0)
(2.24453e-05 -2.40671e-05 0)
(2.39247e-05 -2.09658e-05 0)
(2.3772e-05 -1.83109e-05 0)
(2.26991e-05 -1.59965e-05 0)
(-0.000132819 -3.53889e-05 0)
(-3.54381e-05 -3.69091e-05 0)
(-1.89492e-05 -3.34437e-05 0)
(-2.32551e-06 -2.98281e-05 0)
(1.02565e-05 -2.62617e-05 0)
(1.84649e-05 -2.29484e-05 0)
(2.28125e-05 -2.00068e-05 0)
(2.44618e-05 -1.74489e-05 0)
(2.44156e-05 -1.52269e-05 0)
(2.34036e-05 -1.32799e-05 0)
(-0.000139636 -2.58001e-05 0)
(-3.73335e-05 -2.72778e-05 0)
(-1.98284e-05 -2.51742e-05 0)
(-2.54243e-06 -2.28074e-05 0)
(1.04949e-05 -2.03364e-05 0)
(1.89904e-05 -1.79338e-05 0)
(2.3501e-05 -1.57216e-05 0)
(2.52321e-05 -1.37465e-05 0)
(2.52182e-05 -1.20023e-05 0)
(2.42095e-05 -1.04613e-05 0)
(-0.000144733 -1.75548e-05 0)
(-3.87455e-05 -1.87134e-05 0)
(-2.04145e-05 -1.74832e-05 0)
(-2.55903e-06 -1.60226e-05 0)
(1.08649e-05 -1.44305e-05 0)
(1.95918e-05 -1.28243e-05 0)
(2.42184e-05 -1.13007e-05 0)
(2.59924e-05 -9.90944e-06 0)
(2.59802e-05 -8.66218e-06 0)
(2.49521e-05 -7.55059e-06 0)
(-0.000148108 -1.01949e-05 0)
(-3.96976e-05 -1.09187e-05 0)
(-2.07945e-05 -1.02762e-05 0)
(-2.53039e-06 -9.48891e-06 0)
(1.1176e-05 -8.6046e-06 0)
(2.00706e-05 -7.68923e-06 0)
(2.47779e-05 -6.80227e-06 0)
(2.65772e-05 -5.97899e-06 0)
(2.6559e-05 -5.2325e-06 0)
(2.55096e-05 -4.56259e-06 0)
(-0.000149785 -3.34308e-06 0)
(-4.01786e-05 -3.58791e-06 0)
(-2.09852e-05 -3.38856e-06 0)
(-2.50937e-06 -3.14045e-06 0)
(1.13455e-05 -2.85761e-06 0)
(2.03289e-05 -2.56092e-06 0)
(2.50788e-05 -2.27024e-06 0)
(2.68907e-05 -1.99811e-06 0)
(2.68682e-05 -1.74986e-06 0)
(2.58061e-05 -1.52622e-06 0)
(-0.000149785 3.34308e-06 0)
(-4.01786e-05 3.58792e-06 0)
(-2.09852e-05 3.38857e-06 0)
(-2.50937e-06 3.14047e-06 0)
(1.13455e-05 2.85763e-06 0)
(2.03289e-05 2.56095e-06 0)
(2.50788e-05 2.27028e-06 0)
(2.68907e-05 1.99815e-06 0)
(2.68682e-05 1.74991e-06 0)
(2.58061e-05 1.52627e-06 0)
(-0.000148108 1.01949e-05 0)
(-3.96976e-05 1.09187e-05 0)
(-2.07945e-05 1.02762e-05 0)
(-2.53038e-06 9.48892e-06 0)
(1.1176e-05 8.60462e-06 0)
(2.00706e-05 7.68925e-06 0)
(2.4778e-05 6.8023e-06 0)
(2.65772e-05 5.97903e-06 0)
(2.65591e-05 5.23255e-06 0)
(2.55096e-05 4.56263e-06 0)
(-0.000144733 1.75548e-05 0)
(-3.87454e-05 1.87134e-05 0)
(-2.04145e-05 1.74832e-05 0)
(-2.55901e-06 1.60226e-05 0)
(1.08649e-05 1.44305e-05 0)
(1.95918e-05 1.28243e-05 0)
(2.42184e-05 1.13007e-05 0)
(2.59925e-05 9.90947e-06 0)
(2.59803e-05 8.66221e-06 0)
(2.49521e-05 7.55063e-06 0)
(-0.000139635 2.58001e-05 0)
(-3.73335e-05 2.72778e-05 0)
(-1.98284e-05 2.51742e-05 0)
(-2.54242e-06 2.28074e-05 0)
(1.04949e-05 2.03364e-05 0)
(1.89904e-05 1.79338e-05 0)
(2.3501e-05 1.57216e-05 0)
(2.52321e-05 1.37465e-05 0)
(2.52182e-05 1.20023e-05 0)
(2.42095e-05 1.04613e-05 0)
(-0.000132819 3.53889e-05 0)
(-3.54381e-05 3.69091e-05 0)
(-1.89492e-05 3.34437e-05 0)
(-2.32549e-06 2.98281e-05 0)
(1.02566e-05 2.62617e-05 0)
(1.84649e-05 2.29484e-05 0)
(2.28125e-05 2.00068e-05 0)
(2.44619e-05 1.74489e-05 0)
(2.44157e-05 1.52269e-05 0)
(2.34036e-05 1.32799e-05 0)
(-0.000124257 4.695e-05 0)
(-3.28916e-05 4.78991e-05 0)
(-1.75139e-05 4.22379e-05 0)
(-1.56576e-06 3.69179e-05 0)
(1.05148e-05 3.20335e-05 0)
(1.8354e-05 2.77329e-05 0)
(2.24454e-05 2.40671e-05 0)
(2.39248e-05 2.09658e-05 0)
(2.37721e-05 1.83109e-05 0)
(2.26991e-05 1.59965e-05 0)
(-0.000113608 6.08346e-05 0)
(-2.93296e-05 6.01735e-05 0)
(-1.50786e-05 5.09899e-05 0)
(3.11063e-07 4.34874e-05 0)
(1.1847e-05 3.71773e-05 0)
(1.91562e-05 3.19437e-05 0)
(2.27985e-05 2.76663e-05 0)
(2.3932e-05 2.41332e-05 0)
(2.35317e-05 2.11342e-05 0)
(2.2293e-05 1.8517e-05 0)
(-0.000103541 7.51395e-05 0)
(-2.50503e-05 7.22473e-05 0)
(-1.13355e-05 5.83992e-05 0)
(4.11631e-06 4.86507e-05 0)
(1.50974e-05 4.11596e-05 0)
(2.15489e-05 3.52766e-05 0)
(2.43718e-05 3.06335e-05 0)
(2.48489e-05 2.6844e-05 0)
(2.39719e-05 2.36151e-05 0)
(2.24083e-05 2.07693e-05 0)
(-0.00012198 8.23091e-05 0)
(-2.23518e-05 8.44557e-05 0)
(-5.14402e-06 6.46428e-05 0)
(1.16158e-05 5.40711e-05 0)
(2.17177e-05 4.61008e-05 0)
(2.64468e-05 3.99657e-05 0)
(2.77075e-05 3.50987e-05 0)
(2.70069e-05 3.10312e-05 0)
(2.53177e-05 2.74674e-05 0)
(2.32194e-05 2.42574e-05 0)
(-0.000249513 0.000311481 0)
(9.39652e-06 0.000164302 0)
(1.38395e-05 0.000124873 0)
(2.77072e-05 0.000108552 0)
(3.22646e-05 9.41088e-05 0)
(3.22681e-05 8.2007e-05 0)
(3.03239e-05 7.19275e-05 0)
(2.77022e-05 6.32542e-05 0)
(2.49449e-05 5.55911e-05 0)
(2.22965e-05 4.87221e-05 0)
)
;

boundaryField
{
    leftWall
    {
        type            noSlip;
    }
    rightWall
    {
        type            noSlip;
    }
    topWall
    {
        type            noSlip;
    }
    bottomWall
    {
        type            noSlip;
    }
    frontAndBackPlanes
    {
        type            empty;
    }
    procBoundary1to0
    {
        type            processor;
        value           nonuniform List<vector> 
20
(
(1.9863e-05 -4.25229e-05 0)
(2.10399e-05 -2.13274e-05 0)
(2.05751e-05 -1.8208e-05 0)
(2.06735e-05 -1.61845e-05 0)
(2.1185e-05 -1.39443e-05 0)
(2.19199e-05 -1.15543e-05 0)
(2.27136e-05 -9.09203e-06 0)
(2.34276e-05 -6.55917e-06 0)
(2.3958e-05 -3.96301e-06 0)
(2.42388e-05 -1.32566e-06 0)
(2.42388e-05 1.32571e-06 0)
(2.3958e-05 3.96305e-06 0)
(2.34276e-05 6.55921e-06 0)
(2.27136e-05 9.09206e-06 0)
(2.19199e-05 1.15543e-05 0)
(2.1185e-05 1.39443e-05 0)
(2.06735e-05 1.61845e-05 0)
(2.05751e-05 1.8208e-05 0)
(2.10398e-05 2.13274e-05 0)
(1.98629e-05 4.25228e-05 0)
)
;
    }
}


// ************************************************************************* //
