/*--------------------------------*- C++ -*----------------------------------*\
| =========                 |                                                 |
| \\      /  F ield         | OpenFOAM: The Open Source CFD Toolbox           |
|  \\    /   O peration     | Version:  2506                                  |
|   \\  /    A nd           | Website:  www.openfoam.com                      |
|    \\/     M anipulation  |                                                 |
\*---------------------------------------------------------------------------*/
FoamFile
{
    version     2.0;
    format      ascii;
    arch        "LSB;label=32;scalar=64";
    class       volScalarField;
    location    "1.557521";
    object      alphat;
}
// * * * * * * * * * * * * * * * * * * * * * * * * * * * * * * * * * * * * * //

dimensions      [1 -1 -1 0 0 0 0];

internalField   nonuniform List<scalar> 
200
(
0.286054
0.284196
0.280411
0.274548
0.26631
0.255133
0.239891
0.218023
0.181943
0.100874
3.26458
3.24166
3.19413
3.11835
3.00751
2.8491
2.61799
2.25504
1.58252
0.181948
5.95099
5.89901
5.79088
5.61756
5.36234
4.99497
4.45783
3.63204
2.25508
0.218031
7.90387
7.82469
7.65991
7.39569
7.00706
6.45041
5.64829
4.45788
2.61805
0.239901
9.32887
9.22624
9.01278
8.67113
8.17055
7.45935
6.45048
4.99507
2.84919
0.255145
10.3703
10.2485
9.99531
9.59111
9.00159
8.17065
7.00721
5.36251
3.00763
0.266324
11.1213
10.9844
10.7004
10.2482
9.59125
8.67136
7.39595
5.6178
3.11849
0.274564
11.6418
11.4939
11.1876
10.7006
9.99564
9.01318
7.6603
5.79121
3.19432
0.280429
11.9701
11.8151
11.4942
10.9849
10.249
9.22685
7.82525
5.89944
3.24189
0.284218
12.1289
11.9704
11.6424
11.1221
10.3712
9.32974
7.90463
5.95156
3.26487
0.28608
12.1289
11.9704
11.6424
11.1221
10.3712
9.32974
7.90463
5.95156
3.26487
0.28608
11.9701
11.8151
11.4942
10.9849
10.249
9.22685
7.82525
5.89944
3.24189
0.284218
11.6418
11.4939
11.1876
10.7006
9.99564
9.01318
7.6603
5.79121
3.19432
0.280429
11.1213
10.9844
10.7004
10.2482
9.59125
8.67136
7.39595
5.6178
3.11849
0.274564
10.3703
10.2485
9.99531
9.59111
9.00159
8.17065
7.00721
5.36251
3.00763
0.266324
9.32887
9.22624
9.01278
8.67113
8.17055
7.45935
6.45048
4.99507
2.84919
0.255145
7.90387
7.8247
7.65991
7.39569
7.00706
6.45041
5.64829
4.45788
2.61805
0.239901
5.95099
5.89902
5.79088
5.61756
5.36234
4.99497
4.45783
3.63204
2.25508
0.218031
3.26458
3.24166
3.19413
3.11835
3.00751
2.8491
2.61799
2.25504
1.58252
0.181948
0.286054
0.284196
0.280411
0.274548
0.26631
0.255133
0.239891
0.218023
0.181943
0.100874
)
;

boundaryField
{
    leftWall
    {
        type            compressible::alphatWallFunction;
        value           nonuniform List<scalar> 0();
    }
    rightWall
    {
        type            compressible::alphatWallFunction;
        value           nonuniform List<scalar> 
20
(
0.0231297
0.0377512
0.0438634
0.0473389
0.049618
0.0511949
0.0522964
0.0530448
0.053511
0.053735
0.053735
0.053511
0.0530448
0.0522964
0.0511949
0.049618
0.0473389
0.0438634
0.0377512
0.0231297
)
;
    }
    topWall
    {
        type            compressible::alphatWallFunction;
        value           nonuniform List<scalar> 10(0.053734 0.05351 0.0530437 0.0522953 0.0511938 0.0496169 0.0473379 0.0438626 0.0377507 0.0231297);
    }
    bottomWall
    {
        type            compressible::alphatWallFunction;
        value           nonuniform List<scalar> 10(0.053734 0.05351 0.0530437 0.0522953 0.0511938 0.0496169 0.0473379 0.0438626 0.0377507 0.0231297);
    }
    frontAndBackPlanes
    {
        type            empty;
    }
    procBoundary0to1
    {
        type            processor;
        value           nonuniform List<scalar> 
20
(
0.286049
3.26451
5.95082
7.90361
9.32855
10.37
11.1208
11.6413
11.9696
12.1285
12.1285
11.9696
11.6413
11.1208
10.37
9.32855
7.90362
5.95082
3.26451
0.286049
)
;
    }
}


// ************************************************************************* //
