/*--------------------------------*- C++ -*----------------------------------*\
| =========                 |                                                 |
| \\      /  F ield         | OpenFOAM: The Open Source CFD Toolbox           |
|  \\    /   O peration     | Version:  2506                                  |
|   \\  /    A nd           | Website:  www.openfoam.com                      |
|    \\/     M anipulation  |                                                 |
\*---------------------------------------------------------------------------*/
FoamFile
{
    version     2.0;
    format      ascii;
    arch        "LSB;label=32;scalar=64";
    class       surfaceScalarField;
    location    "1.557521";
    object      phi;
}
// * * * * * * * * * * * * * * * * * * * * * * * * * * * * * * * * * * * * * //

dimensions      [1 0 -1 0 0 0 0];

oriented        oriented;

internalField   nonuniform List<scalar> 
370
(
3.0635e-06
-1.67032e-06
2.95337e-06
-1.46245e-06
2.81878e-06
-1.29019e-06
2.66635e-06
-1.15148e-06
2.50056e-06
-1.04623e-06
2.3234e-06
-9.75352e-07
2.14167e-06
-9.39888e-07
2.03826e-06
-9.93937e-07
2.33814e-06
-1.46988e-06
-2.3152e-06
2.626e-06
-1.41812e-06
2.633e-06
-1.22528e-06
2.60503e-06
-1.06956e-06
2.55149e-06
-9.4819e-07
2.48079e-06
-8.60987e-07
2.40199e-06
-8.10527e-07
2.3353e-06
-8.1005e-07
2.31105e-06
-9.24944e-07
2.16081e-06
-1.29013e-06
-1.59754e-06
2.20621e-06
-1.20756e-06
2.29231e-06
-1.03071e-06
2.33927e-06
-8.91033e-07
2.35521e-06
-7.8559e-07
2.3475e-06
-7.13944e-07
2.32301e-06
-6.78965e-07
2.28664e-06
-6.92854e-07
2.21368e-06
-7.92454e-07
1.98176e-06
-1.01654e-06
-1.18477e-06
1.87348e-06
-1.02071e-06
2.01402e-06
-8.62524e-07
2.11402e-06
-7.39586e-07
2.17952e-06
-6.4915e-07
2.21603e-06
-5.90439e-07
2.22742e-06
-5.65277e-07
2.21202e-06
-5.81069e-07
2.1478e-06
-6.55383e-07
1.98352e-06
-7.99436e-07
-9.0245e-07
1.60366e-06
-8.46324e-07
1.78254e-06
-7.09726e-07
1.92075e-06
-6.047e-07
2.02227e-06
-5.28856e-07
2.09086e-06
-4.81143e-07
2.12865e-06
-4.62154e-07
2.13318e-06
-4.75352e-07
2.09078e-06
-5.28121e-07
1.97593e-06
-6.21643e-07
-6.84406e-07
1.38616e-06
-6.77382e-07
1.59184e-06
-5.64949e-07
1.75725e-06
-4.79067e-07
1.88467e-06
-4.17774e-07
1.97648e-06
-3.79889e-07
2.03395e-06
-3.6511e-07
2.05527e-06
-3.74415e-07
2.03255e-06
-4.10061e-07
1.95247e-06
-4.69774e-07
-5.09015e-07
1.21661e-06
-5.09665e-07
1.44053e-06
-4.23487e-07
1.6248e-06
-3.579e-07
1.77042e-06
-3.11394e-07
1.87884e-06
-2.82855e-07
1.95096e-06
-2.71559e-07
1.98598e-06
-2.77247e-07
1.97991e-06
-2.99977e-07
1.92641e-06
-3.37123e-07
-3.62075e-07
1.09219e-06
-3.41062e-07
1.32799e-06
-2.82722e-07
1.52478e-06
-2.38401e-07
1.68269e-06
-2.0707e-07
1.80259e-06
-1.87869e-07
1.88533e-06
-1.80071e-07
1.93098e-06
-1.83074e-07
1.93802e-06
-1.96318e-07
1.90362e-06
-2.17886e-07
-2.32942e-07
1.01063e-06
-1.71017e-07
1.25352e-06
-1.41579e-07
1.45791e-06
-1.19231e-07
1.62341e-06
-1.03452e-07
1.75057e-06
-9.37751e-08
1.84027e-06
-8.97642e-08
1.89319e-06
-9.09989e-08
1.90918e-06
-9.70544e-08
1.88696e-06
-1.06963e-07
-1.1411e-07
9.70287e-07
3.77379e-12
1.21648e-06
3.65535e-12
1.42445e-06
3.4584e-12
1.59356e-06
3.20492e-12
1.72424e-06
2.93573e-12
1.81741e-06
2.6735e-12
1.87401e-06
2.4405e-12
1.8945e-06
2.24843e-12
1.8782e-06
2.08668e-12
1.8201e-12
9.70287e-07
1.71024e-07
1.21648e-06
1.41586e-07
1.42445e-06
1.19238e-07
1.59356e-06
1.03458e-07
1.72424e-06
9.37809e-08
1.81741e-06
8.97695e-08
1.87401e-06
9.10037e-08
1.8945e-06
9.70588e-08
1.8782e-06
1.06967e-07
1.14113e-07
1.01063e-06
3.41069e-07
1.25352e-06
2.82729e-07
1.45791e-06
2.38407e-07
1.62341e-06
2.07075e-07
1.75057e-06
1.87874e-07
1.84027e-06
1.80076e-07
1.89319e-06
1.83078e-07
1.90918e-06
1.96322e-07
1.88696e-06
2.1789e-07
2.32945e-07
1.09219e-06
5.09671e-07
1.32799e-06
4.23493e-07
1.52478e-06
3.57906e-07
1.68269e-06
3.114e-07
1.80259e-06
2.8286e-07
1.88533e-06
2.71563e-07
1.93097e-06
2.77251e-07
1.93802e-06
2.99981e-07
1.90362e-06
3.37127e-07
3.62078e-07
1.21661e-06
6.77388e-07
1.44052e-06
5.64954e-07
1.6248e-06
4.79072e-07
1.77042e-06
4.17779e-07
1.87883e-06
3.79893e-07
1.95096e-06
3.65114e-07
1.98598e-06
3.74418e-07
1.97991e-06
4.10064e-07
1.92641e-06
4.69777e-07
5.09017e-07
1.38616e-06
8.46328e-07
1.59184e-06
7.09731e-07
1.75725e-06
6.04704e-07
1.88467e-06
5.2886e-07
1.97648e-06
4.81146e-07
2.03395e-06
4.62157e-07
2.05527e-06
4.75355e-07
2.03254e-06
5.28123e-07
1.95247e-06
6.21645e-07
6.84408e-07
1.60366e-06
1.02071e-06
1.78254e-06
8.62527e-07
1.92075e-06
7.39589e-07
2.02227e-06
6.49152e-07
2.09086e-06
5.90442e-07
2.12865e-06
5.6528e-07
2.13318e-06
5.81071e-07
2.09078e-06
6.55384e-07
1.97593e-06
7.99437e-07
9.02451e-07
1.87348e-06
1.20757e-06
2.01402e-06
1.03072e-06
2.11402e-06
8.91034e-07
2.17952e-06
7.85591e-07
2.21603e-06
7.13946e-07
2.22742e-06
6.78967e-07
2.21201e-06
6.92855e-07
2.14779e-06
7.92455e-07
1.98352e-06
1.01654e-06
1.18477e-06
2.20621e-06
1.41812e-06
2.29231e-06
1.22528e-06
2.33927e-06
1.06956e-06
2.35521e-06
9.48191e-07
2.3475e-06
8.60988e-07
2.32301e-06
8.10528e-07
2.28664e-06
8.10051e-07
2.21368e-06
9.24945e-07
1.98175e-06
1.29013e-06
1.59754e-06
2.626e-06
1.67032e-06
2.633e-06
1.46245e-06
2.60503e-06
1.29019e-06
2.55149e-06
1.15148e-06
2.48078e-06
1.04623e-06
2.40199e-06
9.75352e-07
2.33529e-06
9.39888e-07
2.31105e-06
9.93937e-07
2.16081e-06
1.46988e-06
2.3152e-06
3.0635e-06
2.95337e-06
2.81878e-06
2.66634e-06
2.50056e-06
2.32339e-06
2.14167e-06
2.03826e-06
2.33814e-06
)
;

boundaryField
{
    leftWall
    {
        type            calculated;
        value           nonuniform List<scalar> 0();
    }
    rightWall
    {
        type            calculated;
        value           nonuniform List<scalar> 
20
(
2.32807e-06
1.45703e-06
1.59219e-06
1.73273e-06
1.79694e-06
1.82274e-06
1.83064e-06
1.82993e-06
1.82649e-06
1.82393e-06
1.82393e-06
1.82649e-06
1.82993e-06
1.83064e-06
1.82273e-06
1.79694e-06
1.73273e-06
1.59219e-06
1.45703e-06
2.32807e-06
)
;
    }
    topWall
    {
        type            calculated;
        value           nonuniform List<scalar> 10(1.98203e-06 1.75551e-06 1.5646e-06 1.40906e-06 1.28962e-06 1.20847e-06 1.16058e-06 1.12285e-06 1.18409e-06 2.32807e-06);
    }
    bottomWall
    {
        type            calculated;
        value           nonuniform List<scalar> 10(1.98203e-06 1.75551e-06 1.5646e-06 1.40906e-06 1.28962e-06 1.20847e-06 1.16058e-06 1.12284e-06 1.18409e-06 2.32807e-06);
    }
    frontAndBackPlanes
    {
        type            empty;
    }
    procBoundary0to1
    {
        type            processor;
        value           nonuniform List<scalar> 
20
(
-3.1395e-06
-2.57334e-06
-2.07255e-06
-1.6868e-06
-1.38104e-06
-1.13916e-06
-9.53453e-07
-8.18788e-07
-7.3126e-07
-6.88184e-07
-6.88184e-07
-7.31261e-07
-8.18788e-07
-9.53453e-07
-1.13916e-06
-1.38104e-06
-1.6868e-06
-2.07255e-06
-2.57334e-06
-3.1395e-06
)
;
    }
}


// ************************************************************************* //
