/*--------------------------------*- C++ -*----------------------------------*\
| =========                 |                                                 |
| \\      /  F ield         | OpenFOAM: The Open Source CFD Toolbox           |
|  \\    /   O peration     | Version:  2506                                  |
|   \\  /    A nd           | Website:  www.openfoam.com                      |
|    \\/     M anipulation  |                                                 |
\*---------------------------------------------------------------------------*/
FoamFile
{
    version     2.0;
    format      ascii;
    arch        "LSB;label=32;scalar=64";
    class       volScalarField;
    location    "1.557521";
    object      T;
}
// * * * * * * * * * * * * * * * * * * * * * * * * * * * * * * * * * * * * * //

dimensions      [0 0 0 1 0 0 0];

internalField   nonuniform List<scalar> 
200
(
273.24
273.174
273.125
273.089
273.062
273.043
273.029
273.018
273.01
273.002
273.347
273.257
273.189
273.138
273.099
273.071
273.049
273.034
273.021
273.009
273.416
273.312
273.232
273.172
273.126
273.091
273.066
273.046
273.031
273.016
273.472
273.357
273.269
273.201
273.149
273.11
273.08
273.058
273.04
273.022
273.518
273.395
273.3
273.226
273.17
273.126
273.093
273.068
273.048
273.028
273.556
273.427
273.326
273.248
273.187
273.141
273.105
273.077
273.055
273.033
273.586
273.453
273.348
273.265
273.202
273.152
273.115
273.085
273.062
273.037
273.608
273.472
273.364
273.279
273.213
273.162
273.122
273.091
273.066
273.04
273.623
273.484
273.374
273.288
273.22
273.168
273.127
273.095
273.069
273.043
273.63
273.491
273.38
273.292
273.224
273.171
273.13
273.097
273.071
273.044
273.63
273.491
273.38
273.292
273.224
273.171
273.13
273.097
273.071
273.044
273.623
273.484
273.374
273.288
273.22
273.168
273.127
273.095
273.069
273.043
273.608
273.472
273.364
273.279
273.213
273.161
273.122
273.091
273.066
273.04
273.586
273.453
273.348
273.265
273.202
273.152
273.115
273.085
273.062
273.037
273.556
273.427
273.326
273.248
273.187
273.141
273.105
273.077
273.055
273.033
273.518
273.395
273.3
273.226
273.17
273.126
273.093
273.068
273.048
273.028
273.472
273.357
273.269
273.201
273.149
273.11
273.08
273.058
273.04
273.022
273.416
273.312
273.232
273.172
273.126
273.091
273.066
273.046
273.031
273.016
273.347
273.257
273.189
273.138
273.099
273.071
273.049
273.034
273.021
273.009
273.24
273.174
273.125
273.089
273.062
273.043
273.029
273.018
273.01
273.002
)
;

boundaryField
{
    leftWall
    {
        type            fixedValue;
        value           nonuniform List<scalar> 0();
    }
    rightWall
    {
        type            fixedValue;
        value           uniform 273;
    }
    topWall
    {
        type            fixedValue;
        value           uniform 273;
    }
    bottomWall
    {
        type            fixedValue;
        value           uniform 273;
    }
    frontAndBackPlanes
    {
        type            empty;
    }
    procBoundary0to1
    {
        type            processor;
        value           nonuniform List<scalar> 
20
(
273.329
273.466
273.552
273.62
273.675
273.72
273.754
273.78
273.796
273.804
273.804
273.796
273.78
273.754
273.72
273.675
273.62
273.552
273.466
273.329
)
;
    }
}


// ************************************************************************* //
