/*--------------------------------*- C++ -*----------------------------------*\
| =========                 |                                                 |
| \\      /  F ield         | OpenFOAM: The Open Source CFD Toolbox           |
|  \\    /   O peration     | Version:  2506                                  |
|   \\  /    A nd           | Website:  www.openfoam.com                      |
|    \\/     M anipulation  |                                                 |
\*---------------------------------------------------------------------------*/
FoamFile
{
    version     2.0;
    format      ascii;
    arch        "LSB;label=32;scalar=64";
    class       volScalarField;
    location    "4.32210647238";
    object      alphat;
}
// * * * * * * * * * * * * * * * * * * * * * * * * * * * * * * * * * * * * * //

dimensions      [1 -1 -1 0 0 0 0];

internalField   nonuniform List<scalar> 
400
(
0.0490138
0.0887714
0.105967
0.116017
0.12279
0.127602
0.13105
0.133447
0.134967
0.135709
0.135715
0.134985
0.133476
0.131092
0.127658
0.12286
0.116104
0.106073
0.0889001
0.0492303
0.0886518
0.801474
1.15263
1.34131
1.46097
1.54278
1.59997
1.63908
1.66364
1.67554
1.67561
1.66385
1.63943
1.60046
1.54342
1.46175
1.34225
1.15371
0.802573
0.088904
0.105792
1.15208
1.89689
2.3483
2.6424
2.84338
2.98285
3.07754
3.13666
3.16519
3.16533
3.1371
3.07827
2.98388
2.8447
2.644
2.35014
1.89885
1.15374
0.106079
0.115807
1.34036
2.34771
3.01383
3.46695
3.78267
4.00348
4.15374
4.24758
4.29285
4.29306
4.24822
4.15479
4.00494
3.78453
3.46915
3.01629
2.35019
1.34231
0.116111
0.122554
1.45973
2.6413
3.46636
4.04737
4.46058
4.75287
4.95298
5.07833
5.13886
5.13912
5.0791
4.95427
4.75466
4.46282
4.04999
3.46922
2.6441
1.46183
0.122869
0.127346
1.54132
2.84186
3.78155
4.46001
4.95077
5.30172
5.54357
5.69563
5.7692
5.76949
5.69652
5.54503
5.30373
4.95328
4.46291
3.78467
2.84485
1.54352
0.127668
0.130778
1.59833
2.98098
4.00189
4.75178
5.30117
5.69754
5.97229
6.14566
6.22969
6.23001
6.14663
5.97388
5.69971
5.30386
4.75487
4.00518
2.9841
1.60059
0.131105
0.133162
1.6373
3.07538
4.15176
4.95143
5.54252
5.97178
6.27069
6.45983
6.55165
6.55199
6.46085
6.27236
5.97406
5.54533
4.95463
4.15515
3.07857
1.6396
0.133492
0.134672
1.66174
3.13426
4.24528
5.07638
5.69415
6.14469
6.45936
6.65888
6.75584
6.75619
6.65993
6.46108
6.14703
5.69703
5.07966
4.24873
3.1375
1.66407
0.135004
0.135406
1.67355
3.16261
4.29028
5.13658
5.76735
6.22833
6.55077
6.75542
6.85493
6.85528
6.75649
6.55252
6.2307
5.77027
5.1399
4.29376
3.16586
1.67588
0.135739
0.135406
1.67355
3.16261
4.29028
5.13658
5.76735
6.22833
6.55077
6.75542
6.85493
6.85528
6.75649
6.55252
6.2307
5.77027
5.1399
4.29376
3.16586
1.67588
0.135739
0.134672
1.66174
3.13426
4.24528
5.07638
5.69415
6.14469
6.45936
6.65888
6.75584
6.75619
6.65993
6.46109
6.14703
5.69703
5.07966
4.24873
3.1375
1.66407
0.135004
0.133162
1.6373
3.07538
4.15176
4.95143
5.54252
5.97178
6.27069
6.45983
6.55165
6.55199
6.46085
6.27236
5.97406
5.54533
4.95464
4.15515
3.07857
1.6396
0.133492
0.130778
1.59833
2.98098
4.00189
4.75178
5.30117
5.69754
5.9723
6.14566
6.22969
6.23002
6.14663
5.97388
5.69971
5.30386
4.75487
4.00518
2.9841
1.60059
0.131105
0.127346
1.54132
2.84186
3.78155
4.46001
4.95077
5.30172
5.54357
5.69563
5.7692
5.7695
5.69652
5.54503
5.30373
4.95328
4.46291
3.78467
2.84485
1.54352
0.127668
0.122554
1.45973
2.6413
3.46636
4.04737
4.46058
4.75287
4.95298
5.07833
5.13886
5.13912
5.07911
4.95427
4.75466
4.46282
4.05
3.46922
2.6441
1.46183
0.122869
0.115807
1.34036
2.34771
3.01383
3.46695
3.78267
4.00348
4.15374
4.24759
4.29286
4.29307
4.24822
4.15479
4.00494
3.78453
3.46915
3.01629
2.35019
1.34231
0.116111
0.105792
1.15208
1.89689
2.3483
2.6424
2.84338
2.98285
3.07754
3.13666
3.16519
3.16534
3.1371
3.07827
2.98388
2.8447
2.644
2.35014
1.89885
1.15374
0.106079
0.0886518
0.801474
1.15263
1.34131
1.46097
1.54278
1.59997
1.63908
1.66364
1.67554
1.67561
1.66385
1.63943
1.60046
1.54342
1.46175
1.34225
1.15371
0.802573
0.088904
0.0490138
0.0887714
0.105967
0.116017
0.12279
0.127602
0.13105
0.133447
0.134967
0.135709
0.135715
0.134985
0.133476
0.131092
0.127658
0.12286
0.116104
0.106073
0.0889002
0.0492303
)
;

boundaryField
{
    leftWall
    {
        type            compressible::alphatWallFunction;
        value           nonuniform List<scalar> 
20
(
0.00977419
0.0165226
0.0193598
0.0210032
0.022104
0.0228826
0.0234382
0.0238231
0.0240665
0.0241846
0.0241846
0.0240665
0.0238231
0.0234382
0.0228826
0.022104
0.0210032
0.0193598
0.0165226
0.00977419
)
;
    }
    rightWall
    {
        type            compressible::alphatWallFunction;
        value           nonuniform List<scalar> 
20
(
0.0110188
0.0193983
0.0229027
0.024927
0.0262809
0.0272377
0.02792
0.0283925
0.0286912
0.0288361
0.0288361
0.0286912
0.0283925
0.02792
0.0272377
0.0262809
0.024927
0.0229027
0.0193983
0.0110188
)
;
    }
    topWall
    {
        type            compressible::alphatWallFunction;
        value           nonuniform List<scalar> 
20
(
0.0110248
0.0194047
0.022906
0.0249292
0.0262824
0.0272385
0.0279204
0.0283925
0.0286909
0.0288356
0.0288354
0.0286903
0.0283915
0.027919
0.0272365
0.0262798
0.024926
0.0229018
0.0193977
0.0110188
)
;
    }
    bottomWall
    {
        type            compressible::alphatWallFunction;
        value           nonuniform List<scalar> 
20
(
0.0110248
0.0194047
0.022906
0.0249292
0.0262824
0.0272385
0.0279204
0.0283925
0.0286909
0.0288356
0.0288354
0.0286903
0.0283915
0.027919
0.0272366
0.0262798
0.024926
0.0229018
0.0193977
0.0110188
)
;
    }
    frontAndBackPlanes
    {
        type            empty;
    }
}


// ************************************************************************* //
