/*--------------------------------*- C++ -*----------------------------------*\
| =========                 |                                                 |
| \\      /  F ield         | OpenFOAM: The Open Source CFD Toolbox           |
|  \\    /   O peration     | Version:  2506                                  |
|   \\  /    A nd           | Website:  www.openfoam.com                      |
|    \\/     M anipulation  |                                                 |
\*---------------------------------------------------------------------------*/
FoamFile
{
    version     2.0;
    format      ascii;
    arch        "LSB;label=32;scalar=64";
    class       volScalarField;
    location    "4.32210647238";
    object      epsilon;
}
// * * * * * * * * * * * * * * * * * * * * * * * * * * * * * * * * * * * * * //

dimensions      [0 2 -3 0 0 0 0];

internalField   nonuniform List<scalar> 
400
(
0.00105448
0.00581743
0.00978255
0.0127858
0.0151238
0.0169466
0.0183371
0.0193453
0.0200021
0.0203261
0.0203257
0.0200009
0.0193432
0.0183342
0.0169429
0.0151192
0.0127806
0.0097769
0.00581075
0.00105197
0.00582138
0.00462651
0.00556819
0.0065401
0.00737705
0.00805929
0.00859192
0.00898326
0.00924024
0.00936752
0.0093674
0.00923988
0.00898265
0.00859103
0.00805809
0.00737551
0.00653815
0.00556566
0.00462297
0.00581127
0.00978912
0.00556922
0.00558571
0.0060041
0.00646247
0.00687459
0.00721334
0.00746975
0.00764107
0.0077267
0.00772661
0.00764079
0.00746927
0.00721264
0.00687363
0.0064612
0.00600242
0.00558344
0.00556583
0.00977803
0.0127948
0.00654195
0.00600474
0.00610818
0.00635427
0.00661708
0.00685055
0.00703492
0.00716114
0.00722503
0.00722495
0.00716088
0.00703447
0.00684989
0.00661617
0.00635304
0.00610654
0.00600248
0.00653841
0.0127822
0.0151353
0.0073796
0.00646361
0.00635472
0.00645611
0.00661586
0.00677609
0.00691023
0.007005
0.00705375
0.00705367
0.00700475
0.00690979
0.00677544
0.00661496
0.0064549
0.00635308
0.00646131
0.00737586
0.0151212
0.0169606
0.00806246
0.00687613
0.00661789
0.0066162
0.00670113
0.00680734
0.006904
0.00697514
0.00701246
0.00701238
0.00697489
0.00690356
0.00680669
0.00670023
0.00661498
0.00661624
0.00687378
0.0080585
0.016945
0.0183531
0.00859562
0.00721522
0.00685164
0.0067767
0.0068076
0.00687415
0.00694295
0.00699636
0.00702506
0.00702498
0.0069961
0.0069425
0.0068735
0.00680669
0.00677547
0.00684997
0.00721282
0.00859147
0.0183364
0.019363
0.00898739
0.00747189
0.00703624
0.00691105
0.00690446
0.00694315
0.00699213
0.00703283
0.00705533
0.00705525
0.00703257
0.00699169
0.00694249
0.00690356
0.00690982
0.00703455
0.00746945
0.00898309
0.0193452
0.0200211
0.0092447
0.00764342
0.00716263
0.00700598
0.00697576
0.00699671
0.00703298
0.00706548
0.00708396
0.00708387
0.00706522
0.00703254
0.00699606
0.00697485
0.00700475
0.00716093
0.00764094
0.00924028
0.0200028
0.0203459
0.00937219
0.0077292
0.00722665
0.00705485
0.0070132
0.00702554
0.0070556
0.00708408
0.00710058
0.00710049
0.00708382
0.00705516
0.00702488
0.00701229
0.00705361
0.00722494
0.0077267
0.00936773
0.0203273
0.0203459
0.00937219
0.0077292
0.00722665
0.00705485
0.0070132
0.00702554
0.0070556
0.00708408
0.00710058
0.00710049
0.00708382
0.00705516
0.00702488
0.00701229
0.00705361
0.00722494
0.0077267
0.00936773
0.0203273
0.0200211
0.0092447
0.00764342
0.00716263
0.00700598
0.00697576
0.00699671
0.00703298
0.00706548
0.00708396
0.00708387
0.00706522
0.00703254
0.00699606
0.00697485
0.00700475
0.00716093
0.00764094
0.00924029
0.0200028
0.019363
0.00898739
0.00747189
0.00703624
0.00691105
0.00690446
0.00694315
0.00699213
0.00703283
0.00705533
0.00705524
0.00703257
0.00699168
0.00694249
0.00690356
0.00690982
0.00703455
0.00746945
0.00898309
0.0193452
0.0183531
0.00859562
0.00721522
0.00685164
0.0067767
0.0068076
0.00687415
0.00694294
0.00699635
0.00702506
0.00702498
0.0069961
0.0069425
0.0068735
0.00680669
0.00677547
0.00684997
0.00721282
0.00859147
0.0183364
0.0169606
0.00806246
0.00687613
0.00661789
0.0066162
0.00670113
0.00680734
0.006904
0.00697514
0.00701246
0.00701238
0.00697488
0.00690356
0.00680669
0.00670023
0.00661498
0.00661624
0.00687378
0.0080585
0.016945
0.0151353
0.0073796
0.00646361
0.00635472
0.00645611
0.00661586
0.00677609
0.00691023
0.007005
0.00705375
0.00705367
0.00700475
0.00690979
0.00677544
0.00661496
0.0064549
0.00635308
0.00646131
0.00737586
0.0151212
0.0127948
0.00654195
0.00600474
0.00610818
0.00635427
0.00661708
0.00685055
0.00703492
0.00716114
0.00722503
0.00722495
0.00716088
0.00703447
0.00684989
0.00661617
0.00635304
0.00610654
0.00600249
0.00653841
0.0127822
0.00978912
0.00556922
0.0055857
0.0060041
0.00646247
0.00687459
0.00721334
0.00746975
0.00764107
0.0077267
0.00772661
0.00764079
0.00746927
0.00721264
0.00687363
0.0064612
0.00600242
0.00558344
0.00556583
0.00977803
0.00582138
0.00462651
0.00556818
0.0065401
0.00737705
0.00805929
0.00859192
0.00898326
0.00924024
0.00936752
0.0093674
0.00923988
0.00898265
0.00859103
0.00805809
0.00737551
0.00653815
0.00556566
0.00462297
0.00581127
0.00105448
0.00581743
0.00978255
0.0127858
0.0151238
0.0169466
0.0183371
0.0193453
0.0200021
0.0203261
0.0203257
0.0200009
0.0193432
0.0183342
0.0169429
0.0151192
0.0127806
0.0097769
0.00581075
0.00105197
)
;

boundaryField
{
    leftWall
    {
        type            epsilonWallFunction;
        blending        stepwise;
        value           nonuniform List<scalar> 
20
(
0.00105448
0.00582138
0.00978912
0.0127948
0.0151353
0.0169606
0.0183531
0.019363
0.0200211
0.0203459
0.0203459
0.0200211
0.019363
0.0183531
0.0169606
0.0151353
0.0127948
0.00978912
0.00582138
0.00105448
)
;
    }
    rightWall
    {
        type            epsilonWallFunction;
        blending        stepwise;
        value           nonuniform List<scalar> 
20
(
0.00105197
0.00581127
0.00977803
0.0127822
0.0151212
0.016945
0.0183364
0.0193452
0.0200028
0.0203273
0.0203273
0.0200028
0.0193452
0.0183364
0.016945
0.0151212
0.0127822
0.00977803
0.00581127
0.00105197
)
;
    }
    topWall
    {
        type            epsilonWallFunction;
        blending        stepwise;
        value           nonuniform List<scalar> 
20
(
0.00105448
0.00581743
0.00978255
0.0127858
0.0151238
0.0169466
0.0183371
0.0193453
0.0200021
0.0203261
0.0203257
0.0200009
0.0193432
0.0183342
0.0169429
0.0151192
0.0127806
0.0097769
0.00581075
0.00105197
)
;
    }
    bottomWall
    {
        type            epsilonWallFunction;
        blending        stepwise;
        value           nonuniform List<scalar> 
20
(
0.00105448
0.00581743
0.00978255
0.0127858
0.0151238
0.0169466
0.0183371
0.0193453
0.0200021
0.0203261
0.0203257
0.0200009
0.0193432
0.0183342
0.0169429
0.0151192
0.0127806
0.0097769
0.00581075
0.00105197
)
;
    }
    frontAndBackPlanes
    {
        type            empty;
    }
}


// ************************************************************************* //
