/*--------------------------------*- C++ -*----------------------------------*\
| =========                 |                                                 |
| \\      /  F ield         | OpenFOAM: The Open Source CFD Toolbox           |
|  \\    /   O peration     | Version:  2506                                  |
|   \\  /    A nd           | Website:  www.openfoam.com                      |
|    \\/     M anipulation  |                                                 |
\*---------------------------------------------------------------------------*/
FoamFile
{
    version     2.0;
    format      ascii;
    arch        "LSB;label=32;scalar=64";
    class       volScalarField;
    location    "4.32210647238";
    object      k;
}
// * * * * * * * * * * * * * * * * * * * * * * * * * * * * * * * * * * * * * //

dimensions      [0 2 -2 0 0 0 0];

internalField   nonuniform List<scalar> 
400
(
0.000758876
0.002396
0.00339366
0.00405902
0.00454114
0.00489999
0.00516517
0.00535331
0.00547416
0.00553328
0.0055332
0.00547392
0.0053529
0.0051646
0.00489923
0.0045402
0.00405789
0.00339234
0.0023942
0.00075806
0.00239708
0.00642059
0.00844487
0.00987148
0.0109406
0.0117502
0.0123544
0.0127854
0.0130633
0.0131994
0.0131992
0.0130627
0.0127844
0.0123529
0.0117483
0.0109382
0.0098685
0.0084413
0.00641653
0.00239436
0.0033952
0.00844565
0.0108506
0.0125151
0.0137717
0.0147332
0.0154566
0.0159757
0.0163117
0.0164766
0.0164764
0.016311
0.0159746
0.0154549
0.014731
0.013769
0.0125118
0.0108468
0.00844151
0.00339263
0.00406093
0.00987308
0.0125159
0.0143005
0.0156423
0.0166722
0.0174508
0.018012
0.0183762
0.0185554
0.0185552
0.0183755
0.0180108
0.0174491
0.01667
0.0156395
0.0142971
0.012512
0.00986885
0.00405826
0.00454347
0.010943
0.0137734
0.0156431
0.0170361
0.0181031
0.0189106
0.0194938
0.0198729
0.0200597
0.0200595
0.0198722
0.0194925
0.0189088
0.0181008
0.0170331
0.0156396
0.0137693
0.0109386
0.00454061
0.0049027
0.0117533
0.0147355
0.0166738
0.0181039
0.0191946
0.0200188
0.0206141
0.0210014
0.0211923
0.021192
0.0210006
0.0206128
0.0200169
0.0191921
0.0181008
0.0166701
0.0147313
0.0117488
0.00489966
0.00516821
0.012358
0.0154595
0.017453
0.018912
0.0200194
0.0208544
0.0214568
0.0218486
0.0220417
0.0220414
0.0218478
0.0214554
0.0208524
0.0200169
0.0189089
0.0174492
0.0154552
0.0123534
0.00516501
0.00535661
0.0127896
0.0159792
0.0180146
0.0194957
0.0206153
0.0214573
0.0220641
0.0224585
0.0226528
0.0226526
0.0224577
0.0220627
0.0214554
0.0206127
0.0194925
0.0180109
0.0159748
0.0127848
0.00535329
0.00547767
0.0130678
0.0163156
0.0183793
0.0198753
0.021003
0.0218496
0.0224589
0.0228548
0.0230498
0.0230495
0.022854
0.0224575
0.0218476
0.0210004
0.0198721
0.0183755
0.0163111
0.013063
0.00547427
0.00553693
0.0132042
0.0164809
0.0185588
0.0200624
0.0211942
0.0220431
0.0226537
0.0230502
0.0232455
0.0232452
0.0230493
0.0226522
0.0220411
0.0211916
0.0200592
0.018555
0.0164764
0.0131994
0.00553349
0.00553693
0.0132042
0.0164809
0.0185588
0.0200624
0.0211942
0.0220431
0.0226537
0.0230502
0.0232455
0.0232452
0.0230493
0.0226522
0.0220411
0.0211916
0.0200592
0.018555
0.0164764
0.0131994
0.00553349
0.00547767
0.0130678
0.0163156
0.0183793
0.0198753
0.021003
0.0218496
0.0224589
0.0228548
0.0230498
0.0230495
0.022854
0.0224575
0.0218476
0.0210004
0.0198721
0.0183755
0.0163111
0.013063
0.00547427
0.00535661
0.0127896
0.0159792
0.0180146
0.0194957
0.0206153
0.0214573
0.0220641
0.0224585
0.0226528
0.0226526
0.0224577
0.0220627
0.0214554
0.0206127
0.0194925
0.0180109
0.0159748
0.0127848
0.00535329
0.00516821
0.012358
0.0154595
0.017453
0.018912
0.0200194
0.0208544
0.0214568
0.0218486
0.0220417
0.0220414
0.0218478
0.0214554
0.0208524
0.0200169
0.0189089
0.0174492
0.0154552
0.0123534
0.00516502
0.0049027
0.0117533
0.0147355
0.0166738
0.0181039
0.0191946
0.0200188
0.0206141
0.0210014
0.0211923
0.021192
0.0210006
0.0206128
0.0200169
0.0191921
0.0181008
0.0166701
0.0147313
0.0117488
0.00489966
0.00454347
0.010943
0.0137734
0.0156431
0.0170361
0.0181031
0.0189106
0.0194938
0.0198729
0.0200597
0.0200595
0.0198722
0.0194925
0.0189088
0.0181008
0.0170331
0.0156396
0.0137693
0.0109386
0.00454061
0.00406093
0.00987308
0.0125159
0.0143005
0.0156423
0.0166722
0.0174508
0.018012
0.0183762
0.0185554
0.0185552
0.0183755
0.0180108
0.0174491
0.01667
0.0156395
0.0142971
0.012512
0.00986885
0.00405826
0.0033952
0.00844565
0.0108506
0.0125151
0.0137717
0.0147332
0.0154565
0.0159757
0.0163117
0.0164767
0.0164764
0.016311
0.0159746
0.0154549
0.014731
0.013769
0.0125118
0.0108468
0.00844151
0.00339263
0.00239708
0.00642059
0.00844486
0.00987148
0.0109406
0.0117502
0.0123544
0.0127854
0.0130633
0.0131994
0.0131992
0.0130627
0.0127844
0.0123529
0.0117483
0.0109382
0.0098685
0.0084413
0.00641654
0.00239436
0.000758876
0.002396
0.00339366
0.00405901
0.00454114
0.00489999
0.00516517
0.00535331
0.00547416
0.00553329
0.00553321
0.00547392
0.0053529
0.0051646
0.00489923
0.0045402
0.00405789
0.00339235
0.0023942
0.00075806
)
;

boundaryField
{
    leftWall
    {
        type            kqRWallFunction;
        value           nonuniform List<scalar> 
20
(
0.000758876
0.00239708
0.0033952
0.00406093
0.00454347
0.0049027
0.00516821
0.00535661
0.00547767
0.00553693
0.00553693
0.00547767
0.00535661
0.00516821
0.0049027
0.00454347
0.00406093
0.0033952
0.00239708
0.000758876
)
;
    }
    rightWall
    {
        type            kqRWallFunction;
        value           nonuniform List<scalar> 
20
(
0.00075806
0.00239436
0.00339263
0.00405826
0.00454061
0.00489966
0.00516501
0.00535329
0.00547427
0.00553349
0.00553349
0.00547427
0.00535329
0.00516502
0.00489966
0.00454061
0.00405826
0.00339263
0.00239436
0.00075806
)
;
    }
    topWall
    {
        type            kqRWallFunction;
        value           nonuniform List<scalar> 
20
(
0.000758876
0.002396
0.00339366
0.00405902
0.00454114
0.00489999
0.00516517
0.00535331
0.00547416
0.00553328
0.0055332
0.00547392
0.0053529
0.0051646
0.00489923
0.0045402
0.00405789
0.00339234
0.0023942
0.00075806
)
;
    }
    bottomWall
    {
        type            kqRWallFunction;
        value           nonuniform List<scalar> 
20
(
0.000758876
0.002396
0.00339366
0.00405901
0.00454114
0.00489999
0.00516517
0.00535331
0.00547416
0.00553329
0.00553321
0.00547392
0.0053529
0.0051646
0.00489923
0.0045402
0.00405789
0.00339235
0.0023942
0.00075806
)
;
    }
    frontAndBackPlanes
    {
        type            empty;
    }
}


// ************************************************************************* //
