/*--------------------------------*- C++ -*----------------------------------*\
| =========                 |                                                 |
| \\      /  F ield         | OpenFOAM: The Open Source CFD Toolbox           |
|  \\    /   O peration     | Version:  2506                                  |
|   \\  /    A nd           | Website:  www.openfoam.com                      |
|    \\/     M anipulation  |                                                 |
\*---------------------------------------------------------------------------*/
FoamFile
{
    version     2.0;
    format      ascii;
    arch        "LSB;label=32;scalar=64";
    class       volScalarField;
    location    "4.32210647238";
    object      nut;
}
// * * * * * * * * * * * * * * * * * * * * * * * * * * * * * * * * * * * * * //

dimensions      [0 2 -1 0 0 0 0];

internalField   nonuniform List<scalar> 
400
(
4.91523e-05
8.88145e-05
0.000105956
0.000115973
0.000122719
0.000127512
0.000130943
0.000133325
0.000134835
0.000135567
0.000135566
0.000134831
0.000133319
0.000130934
0.0001275
0.000122705
0.000115955
0.000105935
8.8783e-05
4.9164e-05
8.88347e-05
0.000801935
0.00115269
0.00134098
0.0014603
0.00154184
0.0015988
0.00163772
0.00166212
0.00167389
0.00167387
0.00166204
0.00163757
0.00159859
0.00154157
0.00145996
0.00134057
0.00115224
0.000801535
8.87868e-05
0.000105981
0.00115269
0.00189703
0.00234781
0.00264131
0.00284177
0.00298079
0.00307509
0.0031339
0.00316218
0.00316213
0.00313376
0.00307486
0.00298046
0.00284134
0.0026408
0.00234725
0.00189647
0.00115227
0.000105941
0.000116001
0.00134104
0.00234788
0.00301325
0.00346561
0.00378063
0.00400082
0.00415055
0.00424396
0.00428887
0.00428881
0.00424378
0.00415026
0.00400041
0.00378012
0.00346502
0.00301261
0.00234728
0.00134061
0.000115962
0.000122752
0.00146043
0.00264148
0.00346571
0.00404586
0.00445825
0.00474981
0.00494928
0.00507409
0.00513419
0.00513412
0.00507389
0.00494895
0.00474936
0.00445769
0.00404522
0.00346504
0.00264085
0.00146
0.000122712
0.000127548
0.00154203
0.00284204
0.00378086
0.00445838
0.00494824
0.00529836
0.0055395
0.00569096
0.00576404
0.00576397
0.00569074
0.00553915
0.00529788
0.00494765
0.0044577
0.00378015
0.00284139
0.00154161
0.000127507
0.000130982
0.00159905
0.00298116
0.00400116
0.00475006
0.0052985
0.00569399
0.00596798
0.00614069
0.00622419
0.00622411
0.00614046
0.0059676
0.00569348
0.00529787
0.00474936
0.00400043
0.00298049
0.00159862
0.00013094
0.000133368
0.00163802
0.00307555
0.00415101
0.00494965
0.00553976
0.00596811
0.0062662
0.00645466
0.00654592
0.00654584
0.00645442
0.00626581
0.00596758
0.00553912
0.00494893
0.00415026
0.00307487
0.00163759
0.000133325
0.000134879
0.00166247
0.00313443
0.00424451
0.00507457
0.00569133
0.00614093
0.00645477
0.00665358
0.00674996
0.00674988
0.00665334
0.00645438
0.0061404
0.00569067
0.00507383
0.00424374
0.00313374
0.00166203
0.000134836
0.000135614
0.00167428
0.00316277
0.0042895
0.00513476
0.0057645
0.00622453
0.00654613
0.00675006
0.00684898
0.0068489
0.00674982
0.00654573
0.00622399
0.00576384
0.00513401
0.00428873
0.00316208
0.00167384
0.000135569
0.000135614
0.00167428
0.00316277
0.0042895
0.00513476
0.0057645
0.00622453
0.00654613
0.00675006
0.00684898
0.0068489
0.00674982
0.00654573
0.00622399
0.00576384
0.00513401
0.00428873
0.00316208
0.00167384
0.000135569
0.000134879
0.00166247
0.00313443
0.00424451
0.00507457
0.00569133
0.00614093
0.00645478
0.00665358
0.00674996
0.00674988
0.00665334
0.00645438
0.0061404
0.00569067
0.00507383
0.00424374
0.00313374
0.00166203
0.000134836
0.000133368
0.00163802
0.00307555
0.00415101
0.00494965
0.00553976
0.00596811
0.0062662
0.00645466
0.00654592
0.00654584
0.00645442
0.00626582
0.00596758
0.00553912
0.00494893
0.00415026
0.00307487
0.00163759
0.000133325
0.000130982
0.00159905
0.00298116
0.00400116
0.00475006
0.0052985
0.00569399
0.00596798
0.00614069
0.00622419
0.00622411
0.00614046
0.00596761
0.00569349
0.00529788
0.00474936
0.00400043
0.00298049
0.00159862
0.00013094
0.000127548
0.00154203
0.00284204
0.00378086
0.00445838
0.00494824
0.00529836
0.0055395
0.00569096
0.00576404
0.00576397
0.00569074
0.00553915
0.00529788
0.00494765
0.0044577
0.00378015
0.00284139
0.00154161
0.000127507
0.000122752
0.00146043
0.00264148
0.00346571
0.00404586
0.00445825
0.00474981
0.00494928
0.00507409
0.00513419
0.00513412
0.00507389
0.00494895
0.00474936
0.00445769
0.00404522
0.00346504
0.00264085
0.00146
0.000122712
0.000116001
0.00134104
0.00234788
0.00301325
0.0034656
0.00378063
0.00400082
0.00415055
0.00424396
0.00428887
0.00428882
0.00424378
0.00415026
0.00400041
0.00378012
0.00346502
0.00301262
0.00234728
0.00134061
0.000115962
0.000105981
0.00115269
0.00189703
0.00234781
0.00264131
0.00284177
0.00298079
0.00307509
0.0031339
0.00316218
0.00316213
0.00313376
0.00307486
0.00298046
0.00284134
0.0026408
0.00234725
0.00189647
0.00115227
0.000105941
8.88347e-05
0.000801935
0.00115269
0.00134098
0.0014603
0.00154184
0.0015988
0.00163772
0.00166212
0.0016739
0.00167387
0.00166204
0.00163757
0.00159859
0.00154157
0.00145996
0.00134057
0.00115224
0.000801535
8.87868e-05
4.91523e-05
8.88145e-05
0.000105956
0.000115973
0.000122719
0.000127511
0.000130943
0.000133325
0.000134835
0.000135567
0.000135566
0.000134831
0.000133319
0.000130934
0.0001275
0.000122705
0.000115955
0.000105935
8.8783e-05
4.9164e-05
)
;

boundaryField
{
    leftWall
    {
        type            nutkWallFunction;
        blending        stepwise;
        value           nonuniform List<scalar> 
20
(
8.53428e-06
1.44267e-05
1.69039e-05
1.83388e-05
1.93e-05
1.99798e-05
2.04649e-05
2.0801e-05
2.10135e-05
2.11166e-05
2.11166e-05
2.10135e-05
2.0801e-05
2.04649e-05
1.99798e-05
1.93e-05
1.83388e-05
1.69039e-05
1.44267e-05
8.53428e-06
)
;
    }
    rightWall
    {
        type            nutkWallFunction;
        blending        stepwise;
        value           nonuniform List<scalar> 
20
(
9.35325e-06
1.64661e-05
1.94409e-05
2.11592e-05
2.23084e-05
2.31206e-05
2.36998e-05
2.41008e-05
2.43544e-05
2.44774e-05
2.44774e-05
2.43544e-05
2.41008e-05
2.36998e-05
2.31206e-05
2.23084e-05
2.11592e-05
1.94409e-05
1.64661e-05
9.35325e-06
)
;
    }
    topWall
    {
        type            nutkWallFunction;
        blending        stepwise;
        value           nonuniform List<scalar> 
20
(
9.35835e-06
1.64716e-05
1.94437e-05
2.1161e-05
2.23097e-05
2.31213e-05
2.37001e-05
2.41008e-05
2.43542e-05
2.4477e-05
2.44768e-05
2.43537e-05
2.41e-05
2.36989e-05
2.31196e-05
2.23075e-05
2.11583e-05
1.94401e-05
1.64656e-05
9.35325e-06
)
;
    }
    bottomWall
    {
        type            nutkWallFunction;
        blending        stepwise;
        value           nonuniform List<scalar> 
20
(
9.35835e-06
1.64716e-05
1.94437e-05
2.1161e-05
2.23097e-05
2.31213e-05
2.37001e-05
2.41008e-05
2.43542e-05
2.4477e-05
2.44768e-05
2.43537e-05
2.41e-05
2.36989e-05
2.31196e-05
2.23075e-05
2.11583e-05
1.94401e-05
1.64656e-05
9.35325e-06
)
;
    }
    frontAndBackPlanes
    {
        type            empty;
    }
}


// ************************************************************************* //
