/*--------------------------------*- C++ -*----------------------------------*\
| =========                 |                                                 |
| \\      /  F ield         | OpenFOAM: The Open Source CFD Toolbox           |
|  \\    /   O peration     | Version:  2506                                  |
|   \\  /    A nd           | Website:  www.openfoam.com                      |
|    \\/     M anipulation  |                                                 |
\*---------------------------------------------------------------------------*/
FoamFile
{
    version     2.0;
    format      ascii;
    arch        "LSB;label=32;scalar=64";
    class       surfaceScalarField;
    location    "4.32210647238";
    object      phi;
}
// * * * * * * * * * * * * * * * * * * * * * * * * * * * * * * * * * * * * * //

dimensions      [1 0 -1 0 0 0 0];

oriented        oriented;

internalField   nonuniform List<scalar> 
760
(
-5.58105e-06
-6.41677e-06
-2.09299e-06
-3.03541e-06
-5.52961e-07
-2.27324e-06
3.19997e-07
-2.05365e-06
8.38703e-07
-1.80271e-06
1.15952e-06
-1.58296e-06
1.37261e-06
-1.39649e-06
1.5243e-06
-1.23427e-06
1.63798e-06
-1.09237e-06
1.72573e-06
-9.68458e-07
1.79367e-06
-8.60724e-07
1.84453e-06
-7.68002e-07
1.87888e-06
-6.89787e-07
1.89585e-06
-6.26557e-07
1.89358e-06
-5.80743e-07
1.86881e-06
-5.56229e-07
1.82823e-06
-5.55653e-07
1.88098e-06
-6.32382e-07
2.47146e-06
-1.19662e-06
-2.56231e-06
-1.07827e-06
-3.99558e-06
-7.08139e-07
-3.00544e-06
-1.7597e-07
-2.43306e-06
2.10218e-07
-2.0885e-06
5.18827e-07
-1.77907e-06
7.6569e-07
-1.51615e-06
9.64674e-07
-1.30043e-06
1.12937e-06
-1.12274e-06
1.2691e-06
-9.74849e-07
1.38966e-06
-8.50776e-07
1.49455e-06
-7.46256e-07
1.5858e-06
-6.58456e-07
1.66453e-06
-5.8587e-07
1.73158e-06
-5.28573e-07
1.78763e-06
-4.88789e-07
1.83389e-06
-4.71021e-07
1.88344e-06
-4.89988e-07
1.96975e-06
-6.19891e-07
1.89695e-06
-1.04285e-06
-1.58489e-06
-6.65978e-08
-3.25565e-06
-7.85038e-08
-2.60744e-06
4.27332e-08
-2.19109e-06
1.8597e-07
-1.88591e-06
3.48511e-07
-1.61211e-06
5.16634e-07
-1.37113e-06
6.80191e-07
-1.16754e-06
8.35099e-07
-9.98314e-07
9.80107e-07
-8.57987e-07
1.11502e-06
-7.41483e-07
1.24004e-06
-6.4475e-07
1.35549e-06
-5.64899e-07
1.4617e-06
-5.00301e-07
1.55898e-06
-4.50844e-07
1.64726e-06
-4.18318e-07
1.72659e-06
-4.07333e-07
1.79663e-06
-4.32315e-07
1.82647e-06
-5.37155e-07
1.66035e-06
-7.80145e-07
-1.0315e-06
-1.05668e-07
-2.78179e-06
-6.68983e-08
-2.27245e-06
1.6888e-09
-1.90573e-06
8.72374e-08
-1.63229e-06
1.97511e-07
-1.39732e-06
3.27841e-07
-1.19081e-06
4.69345e-07
-1.01341e-06
6.14907e-07
-8.63848e-07
7.59839e-07
-7.38991e-07
9.01205e-07
-6.35351e-07
1.03723e-06
-5.49845e-07
1.16687e-06
-4.80128e-07
1.2895e-06
-4.24813e-07
1.40456e-06
-3.83701e-07
1.51109e-06
-3.58061e-07
1.60706e-06
-3.51394e-07
1.68538e-06
-3.73073e-07
1.71561e-06
-4.43877e-07
1.62364e-06
-5.79423e-07
-6.82993e-07
-1.7152e-07
-2.33017e-06
-1.59676e-07
-1.92012e-06
-1.11734e-07
-1.60766e-06
-4.14794e-08
-1.36955e-06
5.22631e-08
-1.17048e-06
1.67298e-07
-9.98128e-07
2.97802e-07
-8.49775e-07
4.37618e-07
-7.23826e-07
5.81671e-07
-6.18107e-07
7.26149e-07
-5.30222e-07
8.68317e-07
-4.57968e-07
1.00624e-06
-3.996e-07
1.13849e-06
-3.54032e-07
1.26372e-06
-3.21002e-07
1.38017e-06
-3.01213e-07
1.48467e-06
-2.96679e-07
1.56934e-06
-3.12062e-07
1.61284e-06
-3.54897e-07
1.57524e-06
-4.23306e-07
-4.48341e-07
-2.37606e-07
-1.87504e-06
-2.51206e-07
-1.54949e-06
-2.22236e-07
-1.29695e-06
-1.62581e-07
-1.10142e-06
-7.69136e-08
-9.39556e-07
3.09112e-08
-8.01014e-07
1.55783e-07
-6.82131e-07
2.9228e-07
-5.81016e-07
4.35523e-07
-4.95927e-07
5.81478e-07
-4.25144e-07
7.26961e-07
-3.67105e-07
8.69482e-07
-3.20554e-07
1.00701e-06
-2.84664e-07
1.13765e-06
-2.59117e-07
1.25915e-06
-2.44121e-07
1.36808e-06
-2.40425e-07
1.45782e-06
-2.49492e-07
1.51478e-06
-2.72112e-07
1.51818e-06
-3.00384e-07
-2.88931e-07
-3.03017e-07
-1.41317e-06
-3.31245e-07
-1.16939e-06
-3.151e-07
-9.78215e-07
-2.63613e-07
-8.29215e-07
-1.83461e-07
-7.06369e-07
-7.99539e-08
-6.01941e-07
4.16108e-08
-5.12646e-07
1.76025e-07
-4.36729e-07
3.18538e-07
-3.72808e-07
4.65049e-07
-3.19642e-07
6.12136e-07
-2.76148e-07
7.56973e-07
-2.41451e-07
8.97151e-07
-2.14938e-07
1.03043e-06
-1.96275e-07
1.15442e-06
-1.85348e-07
1.26601e-06
-1.82125e-07
1.36045e-06
-1.86394e-07
1.43007e-06
-1.96295e-07
1.46566e-06
-2.03588e-07
-1.79967e-07
-3.56531e-07
-9.45186e-07
-3.94594e-07
-7.83002e-07
-3.86703e-07
-6.54655e-07
-3.40937e-07
-5.54299e-07
-2.64685e-07
-4.71727e-07
-1.64045e-07
-4.01819e-07
-4.46062e-08
-3.42208e-07
8.84112e-08
-2.91583e-07
2.30281e-07
-2.4897e-07
3.76858e-07
-2.13548e-07
5.24584e-07
-1.84624e-07
6.70431e-07
-1.61637e-07
8.11776e-07
-1.44172e-07
9.4624e-07
-1.31948e-07
1.07149e-06
-1.2474e-07
1.18498e-06
-1.22223e-07
1.28367e-06
-1.23667e-07
1.36389e-06
-1.26889e-07
1.42284e-06
-1.25689e-07
-1.03718e-07
-3.93283e-07
-4.73423e-07
-4.3768e-07
-3.92494e-07
-4.35001e-07
-3.28074e-07
-3.92973e-07
-2.77605e-07
-3.19309e-07
-2.36117e-07
-2.20523e-07
-2.01068e-07
-1.0243e-07
-1.71232e-07
2.96777e-08
-1.45918e-07
1.71052e-07
-1.2462e-07
3.17506e-07
-1.06926e-07
4.65404e-07
-9.24951e-08
6.11605e-07
-8.10517e-08
7.53382e-07
-7.23848e-08
8.88319e-07
-6.63327e-08
1.01422e-06
-6.27347e-08
1.12905e-06
-6.13354e-08
1.23096e-06
-6.16037e-08
1.31869e-06
-6.22075e-08
1.39266e-06
-5.98942e-08
-4.71981e-08
-4.11896e-07
2.24611e-12
-4.59344e-07
2.33818e-12
-4.59228e-07
2.41686e-12
-4.19079e-07
2.50479e-12
-3.4673e-07
2.59187e-12
-2.48878e-07
2.68165e-12
-1.31456e-07
2.76543e-12
1.92693e-10
2.83716e-12
1.41294e-07
2.89425e-12
2.87637e-07
2.91463e-12
4.35546e-07
2.89819e-12
5.81833e-07
2.85189e-12
7.23732e-07
2.77865e-12
8.58825e-07
2.68645e-12
9.85014e-07
2.59213e-12
1.10055e-06
2.50433e-12
1.2042e-06
2.43566e-12
1.29577e-06
2.39083e-12
1.3771e-06
2.36779e-12
2.34687e-12
-4.11896e-07
4.73428e-07
-4.59344e-07
3.92498e-07
-4.59228e-07
3.28078e-07
-4.1908e-07
2.7761e-07
-3.4673e-07
2.36122e-07
-2.48878e-07
2.01073e-07
-1.31456e-07
1.71238e-07
1.9258e-10
1.45924e-07
1.41294e-07
1.24625e-07
2.87636e-07
1.06932e-07
4.35545e-07
9.25009e-08
5.81833e-07
8.10574e-08
7.23731e-07
7.23904e-08
8.58825e-07
6.6338e-08
9.85014e-07
6.27399e-08
1.10055e-06
6.13404e-08
1.2042e-06
6.16086e-08
1.29577e-06
6.22122e-08
1.3771e-06
5.98989e-08
4.72027e-08
-3.93283e-07
9.45191e-07
-4.3768e-07
7.83006e-07
-4.35001e-07
6.54659e-07
-3.92973e-07
5.54304e-07
-3.19309e-07
4.71732e-07
-2.20523e-07
4.01824e-07
-1.02431e-07
3.42213e-07
2.96774e-08
2.91589e-07
1.71052e-07
2.48975e-07
3.17506e-07
2.13554e-07
4.65403e-07
1.8463e-07
6.11604e-07
1.61642e-07
7.53382e-07
1.44178e-07
8.88319e-07
1.31953e-07
1.01422e-06
1.24745e-07
1.12905e-06
1.22228e-07
1.23096e-06
1.23672e-07
1.31869e-06
1.26894e-07
1.39266e-06
1.25694e-07
1.03723e-07
-3.56532e-07
1.41317e-06
-3.94594e-07
1.16939e-06
-3.86703e-07
9.7822e-07
-3.40937e-07
8.2922e-07
-2.64685e-07
7.06375e-07
-1.64045e-07
6.01946e-07
-4.46066e-08
5.12651e-07
8.84106e-08
4.36735e-07
2.3028e-07
3.72813e-07
3.76857e-07
3.19648e-07
5.24584e-07
2.76154e-07
6.70431e-07
2.41457e-07
8.11776e-07
2.14944e-07
9.46239e-07
1.9628e-07
1.07148e-06
1.85353e-07
1.18498e-06
1.8213e-07
1.28367e-06
1.86399e-07
1.36389e-06
1.963e-07
1.42284e-06
2.03592e-07
1.79971e-07
-3.03017e-07
1.87504e-06
-3.31245e-07
1.54949e-06
-3.151e-07
1.29695e-06
-2.63614e-07
1.10142e-06
-1.83462e-07
9.39561e-07
-7.99544e-08
8.01019e-07
4.16101e-08
6.82136e-07
1.76025e-07
5.81022e-07
3.18537e-07
4.95933e-07
4.65048e-07
4.2515e-07
6.12136e-07
3.6711e-07
7.56972e-07
3.20559e-07
8.9715e-07
2.84669e-07
1.03043e-06
2.59122e-07
1.15442e-06
2.44126e-07
1.26601e-06
2.4043e-07
1.36045e-06
2.49497e-07
1.43006e-06
2.72116e-07
1.46566e-06
3.00388e-07
2.88935e-07
-2.37606e-07
2.33017e-06
-2.51206e-07
1.92012e-06
-2.22237e-07
1.60766e-06
-1.62581e-07
1.36956e-06
-7.69142e-08
1.17049e-06
3.09105e-08
9.98133e-07
1.55783e-07
8.4978e-07
2.9228e-07
7.23832e-07
4.35522e-07
6.18112e-07
5.81477e-07
5.30228e-07
7.2696e-07
4.57974e-07
8.69481e-07
3.99606e-07
1.00701e-06
3.54038e-07
1.13765e-06
3.21007e-07
1.25915e-06
3.01218e-07
1.36808e-06
2.96684e-07
1.45782e-06
3.12066e-07
1.51478e-06
3.54901e-07
1.51818e-06
4.2331e-07
4.48344e-07
-1.7152e-07
2.78179e-06
-1.59676e-07
2.27245e-06
-1.11735e-07
1.90573e-06
-4.14798e-08
1.6323e-06
5.22625e-08
1.39732e-06
1.67297e-07
1.19081e-06
2.97802e-07
1.01341e-06
4.37617e-07
8.63854e-07
5.8167e-07
7.38997e-07
7.26148e-07
6.35357e-07
8.68317e-07
5.4985e-07
1.00624e-06
4.80134e-07
1.13849e-06
4.24819e-07
1.26372e-06
3.83706e-07
1.38017e-06
3.58066e-07
1.48467e-06
3.51398e-07
1.56934e-06
3.73077e-07
1.61284e-06
4.43881e-07
1.57524e-06
5.79427e-07
6.82996e-07
-1.05669e-07
3.25566e-06
-6.68986e-08
2.60745e-06
1.68836e-09
2.19109e-06
8.72368e-08
1.88592e-06
1.97511e-07
1.61212e-06
3.2784e-07
1.37113e-06
4.69344e-07
1.16754e-06
6.14906e-07
9.9832e-07
7.59838e-07
8.57992e-07
9.01205e-07
7.41488e-07
1.03723e-06
6.44756e-07
1.16687e-06
5.64905e-07
1.2895e-06
5.00306e-07
1.40456e-06
4.50848e-07
1.51109e-06
4.18322e-07
1.60706e-06
4.07338e-07
1.68538e-06
4.32319e-07
1.71561e-06
5.37159e-07
1.62364e-06
7.80148e-07
1.03151e-06
-6.65985e-08
3.99558e-06
-7.85044e-08
3.00544e-06
4.27325e-08
2.43307e-06
1.85969e-07
2.0885e-06
3.4851e-07
1.77907e-06
5.16633e-07
1.51616e-06
6.8019e-07
1.30044e-06
8.35098e-07
1.12274e-06
9.80106e-07
9.74855e-07
1.11502e-06
8.50782e-07
1.24004e-06
7.46261e-07
1.35548e-06
6.58461e-07
1.4617e-06
5.85874e-07
1.55898e-06
5.28578e-07
1.64726e-06
4.88793e-07
1.72659e-06
4.71025e-07
1.79663e-06
4.89992e-07
1.82647e-06
6.19894e-07
1.66035e-06
1.04286e-06
1.5849e-06
-1.07827e-06
6.41677e-06
-7.08141e-07
3.03542e-06
-1.75971e-07
2.27325e-06
2.10217e-07
2.05365e-06
5.18826e-07
1.80271e-06
7.65689e-07
1.58296e-06
9.64674e-07
1.3965e-06
1.12937e-06
1.23427e-06
1.26909e-06
1.09238e-06
1.38965e-06
9.68463e-07
1.49455e-06
8.60729e-07
1.5858e-06
7.68007e-07
1.66453e-06
6.89791e-07
1.73158e-06
6.26562e-07
1.78763e-06
5.80747e-07
1.83389e-06
5.56233e-07
1.88344e-06
5.55656e-07
1.96975e-06
6.32385e-07
1.89695e-06
1.19662e-06
2.56231e-06
-5.58106e-06
-2.09299e-06
-5.52963e-07
3.19995e-07
8.38702e-07
1.15952e-06
1.37261e-06
1.5243e-06
1.63798e-06
1.72573e-06
1.79367e-06
1.84453e-06
1.87888e-06
1.89585e-06
1.89358e-06
1.86881e-06
1.82823e-06
1.88099e-06
2.47146e-06
)
;

boundaryField
{
    leftWall
    {
        type            calculated;
        value           nonuniform List<scalar> 
20
(
6.14737e-06
-8.75665e-07
-2.31635e-07
5.81056e-08
1.36622e-07
1.9298e-07
2.4761e-07
2.92467e-07
3.23955e-07
3.40225e-07
3.40225e-07
3.23955e-07
2.92467e-07
2.4761e-07
1.9298e-07
1.36622e-07
5.81065e-08
-2.31634e-07
-8.75663e-07
6.14737e-06
)
;
    }
    rightWall
    {
        type            calculated;
        value           nonuniform List<scalar> 
20
(
2.52673e-06
9.74884e-07
1.18143e-06
1.36281e-06
1.43844e-06
1.46461e-06
1.4687e-06
1.46312e-06
1.45564e-06
1.45087e-06
1.45087e-06
1.45564e-06
1.46312e-06
1.4687e-06
1.4646e-06
1.43844e-06
1.36281e-06
1.18143e-06
9.74885e-07
2.52673e-06
)
;
    }
    topWall
    {
        type            calculated;
        value           nonuniform List<scalar> 
20
(
6.32335e-06
-4.98663e-08
1.10426e-06
1.52709e-06
1.60845e-06
1.56561e-06
1.46616e-06
1.34469e-06
1.22024e-06
1.10191e-06
9.94018e-07
8.98949e-07
8.18475e-07
7.54579e-07
7.10661e-07
6.91865e-07
6.90501e-07
6.56518e-07
6.61824e-07
2.52673e-06
)
;
    }
    bottomWall
    {
        type            calculated;
        value           nonuniform List<scalar> 
20
(
6.32335e-06
-4.98632e-08
1.10426e-06
1.5271e-06
1.60845e-06
1.56562e-06
1.46616e-06
1.3447e-06
1.22025e-06
1.10191e-06
9.94023e-07
8.98953e-07
8.18479e-07
7.54583e-07
7.10665e-07
6.91869e-07
6.90504e-07
6.5652e-07
6.61826e-07
2.52673e-06
)
;
    }
    frontAndBackPlanes
    {
        type            empty;
    }
}


// ************************************************************************* //
