/*--------------------------------*- C++ -*----------------------------------*\
| =========                 |                                                 |
| \\      /  F ield         | OpenFOAM: The Open Source CFD Toolbox           |
|  \\    /   O peration     | Version:  2506                                  |
|   \\  /    A nd           | Website:  www.openfoam.com                      |
|    \\/     M anipulation  |                                                 |
\*---------------------------------------------------------------------------*/
FoamFile
{
    version     2.0;
    format      ascii;
    arch        "LSB;label=32;scalar=64";
    class       volScalarField;
    location    "4.32210647238";
    object      T;
}
// * * * * * * * * * * * * * * * * * * * * * * * * * * * * * * * * * * * * * //

dimensions      [0 0 0 1 0 0 0];

internalField   nonuniform List<scalar> 
400
(
289.672
280.438
278.095
276.947
276.187
275.622
275.179
274.82
274.524
274.277
274.069
273.892
273.742
273.614
273.505
273.41
273.326
273.248
273.166
273.05
286.688
280.798
278.713
277.495
276.657
276.029
275.535
275.134
274.802
274.523
274.287
274.086
273.915
273.768
273.642
273.532
273.437
273.351
273.268
273.164
285.593
280.647
278.799
277.659
276.839
276.209
275.706
275.292
274.947
274.655
274.408
274.196
274.015
273.86
273.726
273.611
273.51
273.421
273.338
273.236
285.149
280.508
278.793
277.721
276.934
276.317
275.816
275.4
275.049
274.752
274.498
274.28
274.093
273.932
273.794
273.675
273.572
273.481
273.396
273.29
284.923
280.41
278.77
277.747
276.989
276.387
275.893
275.479
275.128
274.827
274.57
274.348
274.157
273.993
273.851
273.729
273.624
273.532
273.445
273.335
284.789
280.344
278.748
277.758
277.022
276.435
275.949
275.538
275.188
274.887
274.627
274.403
274.21
274.043
273.899
273.775
273.669
273.575
273.486
273.372
284.704
280.3
278.731
277.763
277.044
276.467
275.988
275.582
275.233
274.932
274.672
274.446
274.251
274.083
273.938
273.813
273.705
273.61
273.519
273.402
284.651
280.272
278.719
277.765
277.057
276.489
276.016
275.612
275.265
274.965
274.705
274.479
274.283
274.113
273.967
273.841
273.732
273.636
273.544
273.424
284.619
280.256
278.712
277.766
277.065
276.503
276.033
275.632
275.286
274.987
274.726
274.5
274.303
274.133
273.986
273.86
273.75
273.653
273.561
273.438
284.604
280.248
278.709
277.767
277.069
276.509
276.041
275.642
275.297
274.997
274.737
274.51
274.314
274.143
273.996
273.869
273.759
273.662
273.569
273.446
284.604
280.248
278.709
277.767
277.069
276.509
276.041
275.642
275.297
274.997
274.737
274.51
274.314
274.143
273.996
273.869
273.759
273.662
273.569
273.446
284.619
280.256
278.712
277.766
277.065
276.503
276.033
275.632
275.286
274.987
274.726
274.5
274.303
274.133
273.986
273.86
273.75
273.653
273.561
273.438
284.651
280.272
278.719
277.765
277.057
276.489
276.016
275.612
275.265
274.965
274.705
274.479
274.283
274.113
273.967
273.841
273.732
273.636
273.544
273.424
284.704
280.3
278.731
277.763
277.044
276.467
275.988
275.582
275.233
274.932
274.672
274.446
274.251
274.083
273.938
273.813
273.705
273.61
273.519
273.402
284.789
280.344
278.748
277.758
277.022
276.435
275.949
275.538
275.188
274.887
274.627
274.403
274.21
274.043
273.899
273.775
273.669
273.575
273.486
273.372
284.923
280.41
278.77
277.747
276.989
276.387
275.893
275.479
275.128
274.827
274.57
274.348
274.157
273.993
273.851
273.729
273.624
273.532
273.445
273.335
285.149
280.508
278.793
277.721
276.934
276.317
275.816
275.4
275.049
274.752
274.498
274.28
274.093
273.932
273.794
273.675
273.572
273.481
273.396
273.29
285.593
280.647
278.799
277.659
276.839
276.209
275.706
275.292
274.947
274.655
274.408
274.196
274.015
273.86
273.726
273.611
273.51
273.421
273.338
273.236
286.688
280.798
278.713
277.495
276.657
276.029
275.535
275.134
274.802
274.523
274.287
274.086
273.915
273.768
273.642
273.532
273.437
273.351
273.268
273.164
289.672
280.438
278.095
276.947
276.187
275.622
275.179
274.82
274.524
274.277
274.069
273.892
273.742
273.614
273.505
273.41
273.326
273.248
273.166
273.05
)
;

boundaryField
{
    leftWall
    {
        type            fixedValue;
        value           uniform 373;
    }
    rightWall
    {
        type            fixedValue;
        value           uniform 273;
    }
    topWall
    {
        type            fixedValue;
        value           uniform 273;
    }
    bottomWall
    {
        type            fixedValue;
        value           uniform 273;
    }
    frontAndBackPlanes
    {
        type            empty;
    }
}


// ************************************************************************* //
