/*--------------------------------*- C++ -*----------------------------------*\
| =========                 |                                                 |
| \\      /  F ield         | OpenFOAM: The Open Source CFD Toolbox           |
|  \\    /   O peration     | Version:  2506                                  |
|   \\  /    A nd           | Website:  www.openfoam.com                      |
|    \\/     M anipulation  |                                                 |
\*---------------------------------------------------------------------------*/
FoamFile
{
    version     2.0;
    format      ascii;
    arch        "LSB;label=32;scalar=64";
    class       volScalarField;
    location    "0.595795";
    object      alphat;
}
// * * * * * * * * * * * * * * * * * * * * * * * * * * * * * * * * * * * * * //

dimensions      [1 -1 -1 0 0 0 0];

internalField   nonuniform List<scalar> 
200
(
0.173521
0.306167
0.365359
0.400333
0.423129
0.437952
0.447228
0.452732
0.455739
0.45705
0.305759
2.62373
3.61835
4.11001
4.39314
4.56535
4.67051
4.73299
4.76756
4.78284
0.364777
3.61657
5.50792
6.52865
7.12223
7.47988
7.69624
7.82416
7.89486
7.92618
0.399653
4.10711
6.52708
7.91946
8.75423
9.26457
9.57586
9.76105
9.86394
9.90968
0.422389
4.38954
7.11952
8.75292
9.75771
10.3826
10.7683
11
11.1296
11.1874
0.43717
4.5613
7.47636
9.26227
10.3815
11.0876
11.5285
11.7956
11.9461
12.0136
0.446418
4.66617
7.69215
9.57283
10.7665
11.5277
12.0073
12.3
12.4659
12.5406
0.451904
4.72846
7.8197
9.75752
10.9975
11.7941
12.2994
12.6095
12.786
12.8657
0.4549
4.7629
7.89017
9.86008
11.1267
11.9442
12.4648
12.7855
12.9685
13.0514
0.456207
4.77813
7.92135
9.90561
11.1843
12.0114
12.5392
12.8649
13.051
13.1353
0.456207
4.77813
7.92135
9.90561
11.1843
12.0114
12.5392
12.8649
13.051
13.1353
0.4549
4.7629
7.89017
9.86008
11.1267
11.9442
12.4648
12.7855
12.9685
13.0514
0.451904
4.72846
7.8197
9.75752
10.9975
11.7941
12.2994
12.6095
12.786
12.8657
0.446418
4.66617
7.69215
9.57283
10.7665
11.5277
12.0073
12.3
12.4659
12.5406
0.43717
4.5613
7.47636
9.26227
10.3815
11.0876
11.5285
11.7956
11.9461
12.0136
0.422389
4.38954
7.11952
8.75292
9.75771
10.3826
10.7683
11
11.1296
11.1874
0.399653
4.10711
6.52708
7.91946
8.75423
9.26457
9.57586
9.76105
9.86394
9.90968
0.364777
3.61657
5.50792
6.52865
7.12223
7.47988
7.69624
7.82416
7.89486
7.92618
0.305759
2.62373
3.61835
4.11001
4.39314
4.56535
4.67051
4.73299
4.76756
4.78284
0.173521
0.306167
0.365359
0.400333
0.423129
0.437952
0.447228
0.452732
0.455738
0.45705
)
;

boundaryField
{
    leftWall
    {
        type            compressible::alphatWallFunction;
        value           nonuniform List<scalar> 
20
(
0.0381776
0.0547437
0.0613917
0.0646462
0.066409
0.0673886
0.0679303
0.0682232
0.0683729
0.0684357
0.0684357
0.0683729
0.0682232
0.0679303
0.0673886
0.066409
0.0646462
0.0613917
0.0547437
0.0381776
)
;
    }
    rightWall
    {
        type            compressible::alphatWallFunction;
        value           nonuniform List<scalar> 0();
    }
    topWall
    {
        type            compressible::alphatWallFunction;
        value           nonuniform List<scalar> 10(0.045944 0.0660357 0.0740739 0.0780041 0.0801314 0.0813132 0.0819664 0.0823194 0.0824997 0.0825751);
    }
    bottomWall
    {
        type            compressible::alphatWallFunction;
        value           nonuniform List<scalar> 10(0.045944 0.0660357 0.0740739 0.0780041 0.0801314 0.0813132 0.0819664 0.0823194 0.0824997 0.0825751);
    }
    frontAndBackPlanes
    {
        type            empty;
    }
    procBoundary1to0
    {
        type            processor;
        value           nonuniform List<scalar> 
20
(
0.457051
4.78287
7.92624
9.90978
11.1876
12.0138
12.5408
12.8659
13.0516
13.1355
13.1355
13.0516
12.8659
12.5408
12.0138
11.1876
9.90978
7.92624
4.78287
0.457051
)
;
    }
}


// ************************************************************************* //
