/*--------------------------------*- C++ -*----------------------------------*\
| =========                 |                                                 |
| \\      /  F ield         | OpenFOAM: The Open Source CFD Toolbox           |
|  \\    /   O peration     | Version:  2506                                  |
|   \\  /    A nd           | Website:  www.openfoam.com                      |
|    \\/     M anipulation  |                                                 |
\*---------------------------------------------------------------------------*/
FoamFile
{
    version     2.0;
    format      ascii;
    arch        "LSB;label=32;scalar=64";
    class       volScalarField;
    location    "0.595795";
    object      rho;
}
// * * * * * * * * * * * * * * * * * * * * * * * * * * * * * * * * * * * * * //

dimensions      [1 -3 0 0 0 0 0];

internalField   nonuniform List<scalar> 
200
(
998.333
1000.6
1001.02
1001.17
1001.25
1001.3
1001.33
1001.34
1001.35
1001.35
998.984
1000.4
1000.84
1001.06
1001.18
1001.25
1001.3
1001.32
1001.34
1001.35
999.156
1000.37
1000.78
1001.01
1001.14
1001.23
1001.28
1001.31
1001.33
1001.34
999.212
1000.36
1000.75
1000.98
1001.12
1001.21
1001.27
1001.3
1001.33
1001.34
999.235
1000.35
1000.74
1000.96
1001.1
1001.2
1001.26
1001.3
1001.32
1001.34
999.247
1000.35
1000.73
1000.95
1001.09
1001.19
1001.25
1001.29
1001.32
1001.33
999.253
1000.34
1000.72
1000.94
1001.08
1001.18
1001.24
1001.29
1001.31
1001.33
999.256
1000.34
1000.72
1000.94
1001.08
1001.18
1001.24
1001.29
1001.31
1001.33
999.257
1000.34
1000.72
1000.94
1001.08
1001.18
1001.24
1001.28
1001.31
1001.33
999.258
1000.34
1000.72
1000.94
1001.08
1001.17
1001.24
1001.28
1001.31
1001.33
999.258
1000.34
1000.72
1000.94
1001.08
1001.17
1001.24
1001.28
1001.31
1001.33
999.257
1000.34
1000.72
1000.94
1001.08
1001.18
1001.24
1001.28
1001.31
1001.33
999.256
1000.34
1000.72
1000.94
1001.08
1001.18
1001.24
1001.29
1001.31
1001.33
999.253
1000.34
1000.72
1000.94
1001.08
1001.18
1001.24
1001.29
1001.31
1001.33
999.247
1000.35
1000.73
1000.95
1001.09
1001.19
1001.25
1001.29
1001.32
1001.33
999.235
1000.35
1000.74
1000.96
1001.1
1001.2
1001.26
1001.3
1001.32
1001.34
999.212
1000.36
1000.75
1000.98
1001.12
1001.21
1001.27
1001.3
1001.33
1001.34
999.156
1000.37
1000.78
1001.01
1001.14
1001.23
1001.28
1001.31
1001.33
1001.34
998.984
1000.4
1000.84
1001.06
1001.18
1001.25
1001.3
1001.32
1001.34
1001.35
998.333
1000.6
1001.02
1001.17
1001.25
1001.3
1001.33
1001.34
1001.35
1001.35
)
;

boundaryField
{
    leftWall
    {
        type            calculated;
        value           uniform 973.493;
    }
    rightWall
    {
        type            calculated;
        value           nonuniform List<scalar> 0();
    }
    topWall
    {
        type            calculated;
        value           uniform 1001.36;
    }
    bottomWall
    {
        type            calculated;
        value           uniform 1001.36;
    }
    frontAndBackPlanes
    {
        type            empty;
    }
    procBoundary1to0
    {
        type            processor;
        value           nonuniform List<scalar> 
20
(
1001.36
1001.35
1001.35
1001.35
1001.35
1001.34
1001.34
1001.34
1001.34
1001.34
1001.34
1001.34
1001.34
1001.34
1001.34
1001.35
1001.35
1001.35
1001.35
1001.36
)
;
    }
}


// ************************************************************************* //
