/*--------------------------------*- C++ -*----------------------------------*\
| =========                 |                                                 |
| \\      /  F ield         | OpenFOAM: The Open Source CFD Toolbox           |
|  \\    /   O peration     | Version:  2506                                  |
|   \\  /    A nd           | Website:  www.openfoam.com                      |
|    \\/     M anipulation  |                                                 |
\*---------------------------------------------------------------------------*/
FoamFile
{
    version     2.0;
    format      ascii;
    arch        "LSB;label=32;scalar=64";
    class       volVectorField;
    location    "0.595795";
    object      U;
}
// * * * * * * * * * * * * * * * * * * * * * * * * * * * * * * * * * * * * * //

dimensions      [0 1 -1 0 0 0 0];

internalField   nonuniform List<vector> 
200
(
(-0.000261034 -0.000315697 0)
(7.2925e-07 -0.000151795 0)
(5.53396e-06 -0.000115557 0)
(2.23893e-05 -0.000101665 0)
(2.99043e-05 -8.85761e-05 0)
(3.21986e-05 -7.71873e-05 0)
(3.18568e-05 -6.76521e-05 0)
(3.02672e-05 -5.95542e-05 0)
(2.81165e-05 -5.25257e-05 0)
(2.57751e-05 -4.63149e-05 0)
(-0.000102302 -7.73999e-05 0)
(-2.28844e-05 -7.96904e-05 0)
(-8.71085e-06 -6.1879e-05 0)
(6.27946e-06 -5.18353e-05 0)
(1.67428e-05 -4.38309e-05 0)
(2.28937e-05 -3.75006e-05 0)
(2.58644e-05 -3.25208e-05 0)
(2.67079e-05 -2.8502e-05 0)
(2.62151e-05 -2.51307e-05 0)
(2.49515e-05 -2.22061e-05 0)
(-7.58315e-05 -7.62717e-05 0)
(-2.20767e-05 -7.00716e-05 0)
(-1.25365e-05 -5.66642e-05 0)
(-7.22693e-07 -4.71311e-05 0)
(9.20367e-06 -3.96e-05 0)
(1.63405e-05 -3.35292e-05 0)
(2.06891e-05 -2.87112e-05 0)
(2.28311e-05 -2.48637e-05 0)
(2.3399e-05 -2.17069e-05 0)
(2.29411e-05 -1.90321e-05 0)
(-8.21795e-05 -6.39381e-05 0)
(-2.5325e-05 -5.96606e-05 0)
(-1.58655e-05 -5.00725e-05 0)
(-4.90264e-06 -4.24504e-05 0)
(4.91179e-06 -3.60094e-05 0)
(1.25177e-05 -3.05674e-05 0)
(1.75698e-05 -2.60929e-05 0)
(2.04415e-05 -2.24531e-05 0)
(2.16582e-05 -1.94595e-05 0)
(2.17277e-05 -1.69429e-05 0)
(-8.97081e-05 -5.05332e-05 0)
(-2.83886e-05 -4.85511e-05 0)
(-1.84778e-05 -4.21507e-05 0)
(-7.48798e-06 -3.6471e-05 0)
(2.49009e-06 -3.13271e-05 0)
(1.04161e-05 -2.67694e-05 0)
(1.58674e-05 -2.2879e-05 0)
(1.91533e-05 -1.96319e-05 0)
(2.07522e-05 -1.69279e-05 0)
(2.11463e-05 -1.46521e-05 0)
(-9.57207e-05 -3.88606e-05 0)
(-3.05078e-05 -3.8232e-05 0)
(-2.01184e-05 -3.3994e-05 0)
(-8.89515e-06 -2.99017e-05 0)
(1.29582e-06 -2.59867e-05 0)
(9.44641e-06 -2.23756e-05 0)
(1.5127e-05 -1.91886e-05 0)
(1.86375e-05 -1.64596e-05 0)
(2.04437e-05 -1.41512e-05 0)
(2.1018e-05 -1.21965e-05 0)
(-0.000100581 -2.88056e-05 0)
(-3.19937e-05 -2.87949e-05 0)
(-2.10961e-05 -2.60391e-05 0)
(-9.56327e-06 -2.32046e-05 0)
(8.48503e-07 -2.03713e-05 0)
(9.16865e-06 -1.76687e-05 0)
(1.49847e-05 -1.52148e-05 0)
(1.86097e-05 -1.30656e-05 0)
(2.05153e-05 -1.12194e-05 0)
(2.1175e-05 -9.64345e-06 0)
(-0.00010428 -1.98475e-05 0)
(-3.30456e-05 -2.0049e-05 0)
(-2.16822e-05 -1.83443e-05 0)
(-9.83887e-06 -1.65089e-05 0)
(7.81e-07 -1.46104e-05 0)
(9.23652e-06 -1.27501e-05 0)
(1.51381e-05 -1.10225e-05 0)
(1.8819e-05 -9.48149e-06 0)
(2.07648e-05 -8.14017e-06 0)
(2.14556e-05 -6.98621e-06 0)
(-0.000106758 -1.16236e-05 0)
(-3.3728e-05 -1.18157e-05 0)
(-2.20187e-05 -1.0891e-05 0)
(-9.93226e-06 -9.86554e-06 0)
(8.50192e-07 -8.7798e-06 0)
(9.4049e-06 -7.69568e-06 0)
(1.53604e-05 -6.67288e-06 0)
(1.9068e-05 -5.74875e-06 0)
(2.10263e-05 -4.93667e-06 0)
(2.17232e-05 -4.23381e-06 0)
(-0.000108 -3.82766e-06 0)
(-3.40649e-05 -3.90237e-06 0)
(-2.21734e-05 -3.60968e-06 0)
(-9.95517e-06 -3.28041e-06 0)
(9.16121e-07 -2.92766e-06 0)
(9.52398e-06 -2.57202e-06 0)
(1.55064e-05 -2.23377e-06 0)
(1.92249e-05 -1.92612e-06 0)
(2.11857e-05 -1.65441e-06 0)
(2.18816e-05 -1.41849e-06 0)
(-0.000108 3.82767e-06 0)
(-3.40649e-05 3.90238e-06 0)
(-2.21734e-05 3.6097e-06 0)
(-9.95517e-06 3.28043e-06 0)
(9.16123e-07 2.92768e-06 0)
(9.52398e-06 2.57205e-06 0)
(1.55064e-05 2.2338e-06 0)
(1.92249e-05 1.92615e-06 0)
(2.11857e-05 1.65445e-06 0)
(2.18816e-05 1.41852e-06 0)
(-0.000106758 1.16236e-05 0)
(-3.3728e-05 1.18157e-05 0)
(-2.20187e-05 1.0891e-05 0)
(-9.93225e-06 9.86556e-06 0)
(8.50197e-07 8.77982e-06 0)
(9.40491e-06 7.69571e-06 0)
(1.53604e-05 6.6729e-06 0)
(1.9068e-05 5.74878e-06 0)
(2.10263e-05 4.9367e-06 0)
(2.17232e-05 4.23385e-06 0)
(-0.00010428 1.98475e-05 0)
(-3.30456e-05 2.0049e-05 0)
(-2.16822e-05 1.83444e-05 0)
(-9.83886e-06 1.65089e-05 0)
(7.81008e-07 1.46105e-05 0)
(9.23653e-06 1.27502e-05 0)
(1.51381e-05 1.10225e-05 0)
(1.8819e-05 9.48152e-06 0)
(2.07648e-05 8.1402e-06 0)
(2.14556e-05 6.98624e-06 0)
(-0.000100581 2.88056e-05 0)
(-3.19937e-05 2.87949e-05 0)
(-2.10961e-05 2.60391e-05 0)
(-9.56326e-06 2.32046e-05 0)
(8.48513e-07 2.03713e-05 0)
(9.16866e-06 1.76687e-05 0)
(1.49848e-05 1.52148e-05 0)
(1.86097e-05 1.30657e-05 0)
(2.05153e-05 1.12195e-05 0)
(2.1175e-05 9.64347e-06 0)
(-9.57206e-05 3.88607e-05 0)
(-3.05078e-05 3.82321e-05 0)
(-2.01184e-05 3.3994e-05 0)
(-8.89514e-06 2.99017e-05 0)
(1.29583e-06 2.59867e-05 0)
(9.44642e-06 2.23757e-05 0)
(1.5127e-05 1.91886e-05 0)
(1.86375e-05 1.64596e-05 0)
(2.04437e-05 1.41512e-05 0)
(2.1018e-05 1.21965e-05 0)
(-8.97081e-05 5.05332e-05 0)
(-2.83886e-05 4.85511e-05 0)
(-1.84777e-05 4.21507e-05 0)
(-7.48796e-06 3.6471e-05 0)
(2.49011e-06 3.13271e-05 0)
(1.04161e-05 2.67694e-05 0)
(1.58674e-05 2.2879e-05 0)
(1.91533e-05 1.96319e-05 0)
(2.07522e-05 1.69279e-05 0)
(2.11463e-05 1.46521e-05 0)
(-8.21794e-05 6.39381e-05 0)
(-2.5325e-05 5.96606e-05 0)
(-1.58655e-05 5.00725e-05 0)
(-4.90262e-06 4.24504e-05 0)
(4.91181e-06 3.60094e-05 0)
(1.25177e-05 3.05674e-05 0)
(1.75698e-05 2.60929e-05 0)
(2.04415e-05 2.24531e-05 0)
(2.16582e-05 1.94595e-05 0)
(2.17277e-05 1.69429e-05 0)
(-7.58315e-05 7.62717e-05 0)
(-2.20767e-05 7.00716e-05 0)
(-1.25365e-05 5.66642e-05 0)
(-7.22677e-07 4.71311e-05 0)
(9.20369e-06 3.96e-05 0)
(1.63405e-05 3.35292e-05 0)
(2.06891e-05 2.87112e-05 0)
(2.28311e-05 2.48637e-05 0)
(2.3399e-05 2.17069e-05 0)
(2.29411e-05 1.90321e-05 0)
(-0.000102302 7.73999e-05 0)
(-2.28844e-05 7.96904e-05 0)
(-8.71084e-06 6.1879e-05 0)
(6.27948e-06 5.18353e-05 0)
(1.67428e-05 4.38309e-05 0)
(2.28938e-05 3.75005e-05 0)
(2.58644e-05 3.25208e-05 0)
(2.67079e-05 2.8502e-05 0)
(2.62151e-05 2.51307e-05 0)
(2.49515e-05 2.22061e-05 0)
(-0.000261034 0.000315697 0)
(7.29261e-07 0.000151795 0)
(5.53398e-06 0.000115557 0)
(2.23893e-05 0.000101665 0)
(2.99043e-05 8.8576e-05 0)
(3.21986e-05 7.71873e-05 0)
(3.18568e-05 6.76521e-05 0)
(3.02672e-05 5.95542e-05 0)
(2.81165e-05 5.25257e-05 0)
(2.57751e-05 4.63148e-05 0)
)
;

boundaryField
{
    leftWall
    {
        type            noSlip;
    }
    rightWall
    {
        type            noSlip;
    }
    topWall
    {
        type            noSlip;
    }
    bottomWall
    {
        type            noSlip;
    }
    frontAndBackPlanes
    {
        type            empty;
    }
    procBoundary1to0
    {
        type            processor;
        value           nonuniform List<vector> 
20
(
(2.34444e-05 -4.07552e-05 0)
(2.33004e-05 -1.96069e-05 0)
(2.18802e-05 -1.67014e-05 0)
(2.10747e-05 -1.4777e-05 0)
(2.0755e-05 -1.27059e-05 0)
(2.07766e-05 -1.05271e-05 0)
(2.10057e-05 -8.2954e-06 0)
(2.13121e-05 -5.99635e-06 0)
(2.15834e-05 -3.62931e-06 0)
(2.17396e-05 -1.21526e-06 0)
(2.17396e-05 1.21529e-06 0)
(2.15834e-05 3.62934e-06 0)
(2.13121e-05 5.99638e-06 0)
(2.10057e-05 8.29542e-06 0)
(2.07766e-05 1.05271e-05 0)
(2.0755e-05 1.27059e-05 0)
(2.10747e-05 1.4777e-05 0)
(2.18802e-05 1.67014e-05 0)
(2.33004e-05 1.96069e-05 0)
(2.34444e-05 4.07552e-05 0)
)
;
    }
}


// ************************************************************************* //
