/*--------------------------------*- C++ -*----------------------------------*\
| =========                 |                                                 |
| \\      /  F ield         | OpenFOAM: The Open Source CFD Toolbox           |
|  \\    /   O peration     | Version:  2506                                  |
|   \\  /    A nd           | Website:  www.openfoam.com                      |
|    \\/     M anipulation  |                                                 |
\*---------------------------------------------------------------------------*/
FoamFile
{
    version     2.0;
    format      ascii;
    arch        "LSB;label=32;scalar=64";
    class       volScalarField;
    location    "0.774954";
    object      alphat;
}
// * * * * * * * * * * * * * * * * * * * * * * * * * * * * * * * * * * * * * //

dimensions      [1 -1 -1 0 0 0 0];

internalField   nonuniform List<scalar> 
200
(
0.151024
0.2675
0.318961
0.349894
0.371079
0.386039
0.396425
0.403293
0.407423
0.40935
0.267139
2.29828
3.20689
3.67324
3.9553
4.13803
4.25829
4.33562
4.38157
4.40295
0.318444
3.20526
4.98313
5.98551
6.59943
6.99324
7.24898
7.41164
7.50762
7.55213
0.349286
3.67057
5.98402
7.37942
8.26084
8.83352
9.20734
9.44563
9.58641
9.65176
0.370414
3.95195
6.5968
8.25954
9.33727
10.0485
10.5172
10.8179
10.9963
11.0793
0.385334
4.13422
6.98977
8.83119
10.0474
10.8608
11.4021
11.7518
11.9602
12.0575
0.39569
4.25416
7.24491
9.20421
10.5152
11.4012
11.9955
12.3818
12.6131
12.7214
0.402539
4.33126
7.40714
9.44191
10.8152
11.7501
12.381
12.7931
13.0407
13.1568
0.406655
4.37707
7.50281
9.58228
10.9931
11.958
12.6118
13.0401
13.2981
13.4192
0.408575
4.39836
7.54713
9.64735
11.0758
12.0549
12.7196
13.1557
13.4188
13.5425
0.408575
4.39836
7.54713
9.64735
11.0758
12.0549
12.7196
13.1557
13.4188
13.5425
0.406655
4.37707
7.50281
9.58228
10.9931
11.958
12.6118
13.0401
13.2981
13.4192
0.402539
4.33126
7.40714
9.44191
10.8152
11.7501
12.381
12.7931
13.0407
13.1568
0.39569
4.25416
7.24491
9.20421
10.5152
11.4012
11.9955
12.3818
12.6131
12.7214
0.385334
4.13422
6.98977
8.83119
10.0474
10.8608
11.4021
11.7518
11.9602
12.0575
0.370414
3.95195
6.5968
8.25954
9.33727
10.0485
10.5172
10.8179
10.9963
11.0793
0.349286
3.67057
5.98402
7.37942
8.26084
8.83352
9.20734
9.44563
9.58641
9.65176
0.318444
3.20526
4.98313
5.98551
6.59943
6.99324
7.24898
7.41164
7.50762
7.55213
0.267139
2.29828
3.20689
3.67324
3.9553
4.13803
4.25829
4.33562
4.38157
4.40295
0.151024
0.2675
0.318961
0.349894
0.371079
0.386039
0.396425
0.403293
0.407423
0.40935
)
;

boundaryField
{
    leftWall
    {
        type            compressible::alphatWallFunction;
        value           nonuniform List<scalar> 
20
(
0.0316495
0.0472064
0.0535391
0.0568367
0.0587757
0.0599616
0.0606882
0.0611229
0.0613656
0.0614738
0.0614738
0.0613656
0.0611229
0.0606882
0.0599616
0.0587757
0.0568367
0.0535391
0.0472064
0.0316495
)
;
    }
    rightWall
    {
        type            compressible::alphatWallFunction;
        value           nonuniform List<scalar> 0();
    }
    topWall
    {
        type            compressible::alphatWallFunction;
        value           nonuniform List<scalar> 10(0.0379834 0.056904 0.064578 0.0685683 0.0709125 0.0723456 0.0732234 0.0737484 0.0740414 0.074172);
    }
    bottomWall
    {
        type            compressible::alphatWallFunction;
        value           nonuniform List<scalar> 10(0.0379834 0.056904 0.064578 0.0685683 0.0709125 0.0723456 0.0732234 0.0737484 0.0740414 0.074172);
    }
    frontAndBackPlanes
    {
        type            empty;
    }
    procBoundary1to0
    {
        type            processor;
        value           nonuniform List<scalar> 
20
(
0.409353
4.403
7.55224
9.65193
11.0795
12.0578
12.7217
13.1571
13.4196
13.5428
13.5428
13.4196
13.1571
12.7217
12.0578
11.0795
9.65193
7.55224
4.40299
0.409353
)
;
    }
}


// ************************************************************************* //
