/*--------------------------------*- C++ -*----------------------------------*\
| =========                 |                                                 |
| \\      /  F ield         | OpenFOAM: The Open Source CFD Toolbox           |
|  \\    /   O peration     | Version:  2506                                  |
|   \\  /    A nd           | Website:  www.openfoam.com                      |
|    \\/     M anipulation  |                                                 |
\*---------------------------------------------------------------------------*/
FoamFile
{
    version     2.0;
    format      ascii;
    arch        "LSB;label=32;scalar=64";
    class       surfaceScalarField;
    location    "0.774954";
    object      phi;
}
// * * * * * * * * * * * * * * * * * * * * * * * * * * * * * * * * * * * * * //

dimensions      [1 0 -1 0 0 0 0];

oriented        oriented;

internalField   nonuniform List<scalar> 
370
(
-9.81181e-06
-1.51415e-05
-1.67146e-06
-9.68611e-06
1.28069e-06
-6.95879e-06
2.799e-06
-6.05427e-06
3.55225e-06
-5.22464e-06
3.84819e-06
-4.51091e-06
3.8796e-06
-3.92148e-06
3.76272e-06
-3.43073e-06
3.56584e-06
-3.01568e-06
-2.65938e-06
-4.34678e-06
-1.08541e-05
-2.55366e-06
-9.22558e-06
-4.37557e-07
-7.14966e-06
1.01393e-06
-5.92196e-06
2.01131e-06
-4.9662e-06
2.65081e-06
-4.18931e-06
3.00906e-06
-3.56801e-06
3.16077e-06
-3.07081e-06
3.1694e-06
-2.66601e-06
-2.32915e-06
-2.67669e-06
-8.75539e-06
-2.07713e-06
-7.76418e-06
-9.3005e-07
-6.41152e-06
1.75321e-07
-5.38463e-06
1.10527e-06
-4.53131e-06
1.81467e-06
-3.81215e-06
2.301e-06
-3.22168e-06
2.59138e-06
-2.74423e-06
2.72627e-06
-2.35705e-06
-2.03888e-06
-2.97212e-06
-7.13317e-06
-2.29668e-06
-6.48178e-06
-1.34269e-06
-5.50784e-06
-3.51368e-07
-4.70126e-06
5.46158e-07
-3.99486e-06
1.28264e-06
-3.37601e-06
1.83217e-06
-2.85061e-06
2.20088e-06
-2.41576e-06
2.41462e-06
-2.05922e-06
-1.76613e-06
-3.31318e-06
-5.67265e-06
-2.60253e-06
-5.28613e-06
-1.67509e-06
-4.58535e-06
-7.07278e-07
-3.96576e-06
1.86613e-07
-3.40128e-06
9.40946e-07
-2.89138e-06
1.52601e-06
-2.44613e-06
1.94079e-06
-2.06905e-06
2.20393e-06
-1.75522e-06
-1.49563e-06
-3.55714e-06
-4.35819e-06
-2.818e-06
-4.14267e-06
-1.89279e-06
-3.65561e-06
-9.29225e-07
-3.19813e-06
-3.32114e-08
-2.76582e-06
7.32061e-07
-2.365e-06
1.33686e-06
-2.00677e-06
1.77799e-06
-1.69728e-06
2.07083e-06
-1.43594e-06
-1.21801e-06
-3.74431e-06
-3.16646e-06
-2.96158e-06
-3.05233e-06
-2.02344e-06
-2.7284e-06
-1.05565e-06
-2.40956e-06
-1.55845e-07
-2.09866e-06
6.15825e-07
-1.80391e-06
1.23092e-06
-1.53545e-06
1.68608e-06
-1.29972e-06
1.99555e-06
-1.09817e-06
-9.2876e-07
-3.88256e-06
-2.06353e-06
-3.057e-06
-2.00773e-06
-2.09884e-06
-1.81051e-06
-1.12184e-06
-1.60996e-06
-2.16966e-07
-1.40977e-06
5.58895e-07
-1.21673e-06
1.17913e-06
-1.0384e-06
1.64116e-06
-8.79913e-07
1.95911e-06
-7.43104e-07
-6.2738e-07
-3.97299e-06
-1.01774e-06
-3.11539e-06
-9.95512e-07
-2.13935e-06
-9.02319e-07
-1.15303e-06
-8.05705e-07
-2.43311e-07
-7.07873e-07
5.35407e-07
-6.12524e-07
1.15813e-06
-5.23668e-07
1.62317e-06
-4.44103e-07
1.94497e-06
-3.75015e-07
-3.16335e-07
-4.0176e-06
1.07289e-12
-3.14306e-06
1.16867e-12
-2.15681e-06
1.27247e-12
-1.16487e-06
1.47215e-12
-2.52234e-07
1.74119e-12
5.27999e-07
2.06078e-12
1.15173e-06
2.41763e-12
1.61786e-06
2.77597e-12
1.94106e-06
3.08387e-12
3.25377e-12
-4.0176e-06
1.01774e-06
-3.14306e-06
9.95515e-07
-2.15681e-06
9.02321e-07
-1.16487e-06
8.05708e-07
-2.52234e-07
7.07876e-07
5.27999e-07
6.12528e-07
1.15173e-06
5.23673e-07
1.61786e-06
4.44108e-07
1.94106e-06
3.75021e-07
3.16341e-07
-3.97299e-06
2.06353e-06
-3.11539e-06
2.00773e-06
-2.13935e-06
1.81051e-06
-1.15303e-06
1.60996e-06
-2.4331e-07
1.40978e-06
5.35408e-07
1.21673e-06
1.15813e-06
1.03841e-06
1.62317e-06
8.79918e-07
1.94497e-06
7.43109e-07
6.27386e-07
-3.88256e-06
3.16646e-06
-3.05699e-06
3.05233e-06
-2.09884e-06
2.7284e-06
-1.12184e-06
2.40957e-06
-2.16964e-07
2.09866e-06
5.58897e-07
1.80391e-06
1.17913e-06
1.53546e-06
1.64116e-06
1.29973e-06
1.95911e-06
1.09817e-06
9.28764e-07
-3.74431e-06
4.35819e-06
-2.96158e-06
4.14267e-06
-2.02344e-06
3.65561e-06
-1.05565e-06
3.19813e-06
-1.55843e-07
2.76583e-06
6.15827e-07
2.365e-06
1.23092e-06
2.00677e-06
1.68609e-06
1.69729e-06
1.99555e-06
1.43595e-06
1.21801e-06
-3.55714e-06
5.67265e-06
-2.818e-06
5.28613e-06
-1.89279e-06
4.58536e-06
-9.29223e-07
3.96576e-06
-3.32089e-08
3.40128e-06
7.32064e-07
2.89138e-06
1.33687e-06
2.44613e-06
1.77799e-06
2.06905e-06
2.07083e-06
1.75522e-06
1.49563e-06
-3.31318e-06
7.13317e-06
-2.60253e-06
6.48178e-06
-1.67509e-06
5.50784e-06
-7.07275e-07
4.70126e-06
1.86615e-07
3.99486e-06
9.40949e-07
3.37601e-06
1.52601e-06
2.85061e-06
1.94079e-06
2.41576e-06
2.20393e-06
2.05922e-06
1.76613e-06
-2.97212e-06
8.75539e-06
-2.29668e-06
7.76417e-06
-1.34269e-06
6.41152e-06
-3.51365e-07
5.38463e-06
5.4616e-07
4.53131e-06
1.28265e-06
3.81215e-06
1.83217e-06
3.22168e-06
2.20088e-06
2.74423e-06
2.41462e-06
2.35705e-06
2.03888e-06
-2.67668e-06
1.08541e-05
-2.07713e-06
9.22558e-06
-9.30048e-07
7.14966e-06
1.75324e-07
5.92195e-06
1.10527e-06
4.9662e-06
1.81467e-06
4.18931e-06
2.30101e-06
3.56801e-06
2.59139e-06
3.07081e-06
2.72627e-06
2.666e-06
2.32914e-06
-4.34678e-06
1.51415e-05
-2.55366e-06
9.68611e-06
-4.37555e-07
6.95879e-06
1.01393e-06
6.05427e-06
2.01132e-06
5.22464e-06
2.65081e-06
4.51091e-06
3.00906e-06
3.92147e-06
3.16077e-06
3.43073e-06
3.1694e-06
3.01568e-06
2.65937e-06
-9.81181e-06
-1.67145e-06
1.28069e-06
2.79901e-06
3.55225e-06
3.84819e-06
3.87961e-06
3.76273e-06
3.56585e-06
)
;

boundaryField
{
    leftWall
    {
        type            calculated;
        value           nonuniform List<scalar> 
20
(
1.37929e-05
2.36493e-06
2.55286e-06
3.16376e-06
3.56208e-06
3.87468e-06
4.1278e-06
4.31603e-06
4.43996e-06
4.50155e-06
4.50155e-06
4.43996e-06
4.31603e-06
4.1278e-06
3.87468e-06
3.56207e-06
3.16376e-06
2.55285e-06
2.36492e-06
1.37929e-05
)
;
    }
    rightWall
    {
        type            calculated;
        value           nonuniform List<scalar> 0();
    }
    topWall
    {
        type            calculated;
        value           nonuniform List<scalar> 10(1.41877e-05 4.18342e-06 5.89551e-06 5.91927e-06 5.47801e-06 4.93215e-06 4.38904e-06 3.88714e-06 3.4391e-06 3.0439e-06);
    }
    bottomWall
    {
        type            calculated;
        value           nonuniform List<scalar> 10(1.41877e-05 4.18342e-06 5.8955e-06 5.91927e-06 5.47801e-06 4.93214e-06 4.38904e-06 3.88714e-06 3.4391e-06 3.0439e-06);
    }
    frontAndBackPlanes
    {
        type            empty;
    }
    procBoundary1to0
    {
        type            processor;
        value           nonuniform List<scalar> 
20
(
3.32991e-06
3.08446e-06
2.74723e-06
2.50711e-06
2.34393e-06
2.24089e-06
2.18329e-06
2.15636e-06
2.14679e-06
2.14463e-06
2.14463e-06
2.14679e-06
2.15637e-06
2.18329e-06
2.24089e-06
2.34393e-06
2.50711e-06
2.74723e-06
3.08446e-06
3.32991e-06
)
;
    }
}


// ************************************************************************* //
