/*--------------------------------*- C++ -*----------------------------------*\
| =========                 |                                                 |
| \\      /  F ield         | OpenFOAM: The Open Source CFD Toolbox           |
|  \\    /   O peration     | Version:  2506                                  |
|   \\  /    A nd           | Website:  www.openfoam.com                      |
|    \\/     M anipulation  |                                                 |
\*---------------------------------------------------------------------------*/
FoamFile
{
    version     2.0;
    format      ascii;
    arch        "LSB;label=32;scalar=64";
    class       volScalarField;
    location    "0.774954";
    object      T;
}
// * * * * * * * * * * * * * * * * * * * * * * * * * * * * * * * * * * * * * //

dimensions      [0 0 0 1 0 0 0];

internalField   nonuniform List<scalar> 
200
(
285.825
276.682
274.829
274.078
273.662
273.41
273.254
273.157
273.097
273.059
283.083
277.4
275.565
274.598
274.02
273.654
273.419
273.267
273.17
273.107
282.324
277.492
275.792
274.822
274.203
273.794
273.521
273.34
273.219
273.141
282.066
277.518
275.899
274.948
274.32
273.891
273.596
273.395
273.26
273.169
281.948
277.532
275.959
275.026
274.397
273.959
273.652
273.439
273.292
273.192
281.885
277.542
275.995
275.075
274.448
274.007
273.693
273.471
273.317
273.21
281.848
277.548
276.018
275.106
274.482
274.039
273.721
273.495
273.335
273.224
281.826
277.552
276.032
275.125
274.504
274.06
273.74
273.511
273.348
273.234
281.815
277.555
276.04
275.136
274.516
274.073
273.752
273.521
273.356
273.241
281.809
277.556
276.043
275.141
274.522
274.078
273.757
273.525
273.36
273.244
281.809
277.556
276.043
275.141
274.522
274.078
273.757
273.525
273.36
273.244
281.815
277.555
276.04
275.136
274.516
274.073
273.752
273.521
273.356
273.241
281.826
277.552
276.032
275.125
274.504
274.06
273.74
273.511
273.348
273.234
281.848
277.548
276.018
275.106
274.482
274.039
273.721
273.495
273.335
273.224
281.885
277.542
275.995
275.075
274.448
274.007
273.693
273.471
273.317
273.21
281.948
277.532
275.959
275.026
274.397
273.959
273.652
273.439
273.292
273.192
282.066
277.518
275.899
274.948
274.32
273.891
273.596
273.395
273.26
273.169
282.324
277.492
275.792
274.822
274.203
273.794
273.521
273.34
273.219
273.141
283.083
277.4
275.565
274.598
274.02
273.654
273.419
273.267
273.17
273.107
285.825
276.682
274.829
274.078
273.662
273.41
273.254
273.157
273.097
273.059
)
;

boundaryField
{
    leftWall
    {
        type            fixedValue;
        value           uniform 373;
    }
    rightWall
    {
        type            fixedValue;
        value           nonuniform List<scalar> 0();
    }
    topWall
    {
        type            fixedValue;
        value           uniform 273;
    }
    bottomWall
    {
        type            fixedValue;
        value           uniform 273;
    }
    frontAndBackPlanes
    {
        type            empty;
    }
    procBoundary1to0
    {
        type            processor;
        value           nonuniform List<scalar> 
20
(
273.036
273.067
273.089
273.109
273.125
273.138
273.149
273.156
273.161
273.163
273.163
273.161
273.156
273.149
273.138
273.125
273.109
273.089
273.067
273.036
)
;
    }
}


// ************************************************************************* //
