/*--------------------------------*- C++ -*----------------------------------*\
| =========                 |                                                 |
| \\      /  F ield         | OpenFOAM: The Open Source CFD Toolbox           |
|  \\    /   O peration     | Version:  2506                                  |
|   \\  /    A nd           | Website:  www.openfoam.com                      |
|    \\/     M anipulation  |                                                 |
\*---------------------------------------------------------------------------*/
FoamFile
{
    version     2.0;
    format      ascii;
    arch        "LSB;label=32;scalar=64";
    class       volVectorField;
    location    "0.774954";
    object      U;
}
// * * * * * * * * * * * * * * * * * * * * * * * * * * * * * * * * * * * * * //

dimensions      [0 1 -1 0 0 0 0];

internalField   nonuniform List<vector> 
200
(
(-0.00026517 -0.000312885 0)
(-4.89199e-06 -0.000137229 0)
(-1.10733e-06 -0.000104587 0)
(1.69345e-05 -9.30262e-05 0)
(2.61522e-05 -8.15495e-05 0)
(3.01249e-05 -7.11188e-05 0)
(3.12129e-05 -6.21849e-05 0)
(3.0735e-05 -5.45672e-05 0)
(2.93932e-05 -4.80245e-05 0)
(2.76049e-05 -4.23481e-05 0)
(-8.5019e-05 -7.02089e-05 0)
(-2.13683e-05 -7.34975e-05 0)
(-9.99402e-06 -5.81486e-05 0)
(3.01805e-06 -4.90516e-05 0)
(1.27966e-05 -4.13951e-05 0)
(1.92394e-05 -3.51316e-05 0)
(2.30682e-05 -3.01201e-05 0)
(2.49725e-05 -2.60866e-05 0)
(2.55084e-05 -2.27725e-05 0)
(2.51225e-05 -1.99876e-05 0)
(-5.45791e-05 -7.40399e-05 0)
(-1.78786e-05 -6.60078e-05 0)
(-1.1435e-05 -5.3567e-05 0)
(-2.64957e-06 -4.46463e-05 0)
(5.51234e-06 -3.7444e-05 0)
(1.21215e-05 -3.14815e-05 0)
(1.6862e-05 -2.66529e-05 0)
(1.98886e-05 -2.27798e-05 0)
(2.15038e-05 -1.96462e-05 0)
(2.20489e-05 -1.70654e-05 0)
(-5.85295e-05 -6.36029e-05 0)
(-2.01822e-05 -5.70152e-05 0)
(-1.40309e-05 -4.76168e-05 0)
(-6.52824e-06 -4.02755e-05 0)
(1.02244e-06 -3.4049e-05 0)
(7.66567e-06 -2.86959e-05 0)
(1.2822e-05 -2.42202e-05 0)
(1.64489e-05 -2.05583e-05 0)
(1.87113e-05 -1.75759e-05 0)
(1.98656e-05 -1.5129e-05 0)
(-6.37983e-05 -5.11299e-05 0)
(-2.27615e-05 -4.70524e-05 0)
(-1.65124e-05 -4.04229e-05 0)
(-9.30825e-06 -3.47538e-05 0)
(-1.89465e-06 -2.96813e-05 0)
(4.81752e-06 -2.5159e-05 0)
(1.02065e-05 -2.1258e-05 0)
(1.4176e-05 -1.79886e-05 0)
(1.68322e-05 -1.52873e-05 0)
(1.8381e-05 -1.30609e-05 0)
(-6.78981e-05 -3.99008e-05 0)
(-2.45462e-05 -3.75799e-05 0)
(-1.82049e-05 -3.29391e-05 0)
(-1.10717e-05 -2.86858e-05 0)
(-3.68284e-06 -2.47222e-05 0)
(3.08283e-06 -2.10849e-05 0)
(8.60012e-06 -1.7865e-05 0)
(1.27609e-05 -1.51065e-05 0)
(1.56478e-05 -1.27918e-05 0)
(1.74404e-05 -1.08689e-05 0)
(-7.12227e-05 -2.99343e-05 0)
(-2.57726e-05 -2.86618e-05 0)
(-1.92653e-05 -2.54926e-05 0)
(-1.20936e-05 -2.24326e-05 0)
(-4.68482e-06 -1.94842e-05 0)
(2.11921e-06 -1.67126e-05 0)
(7.70384e-06 -1.42066e-05 0)
(1.19642e-05 -1.20199e-05 0)
(1.49768e-05 -1.01594e-05 0)
(1.69096e-05 -8.60064e-06 0)
(-7.37573e-05 -2.08114e-05 0)
(-2.66178e-05 -2.01559e-05 0)
(-1.99133e-05 -1.81186e-05 0)
(-1.26481e-05 -1.60737e-05 0)
(-5.1923e-06 -1.40494e-05 0)
(1.64535e-06 -1.21086e-05 0)
(7.26588e-06 -1.03243e-05 0)
(1.15742e-05 -8.74483e-06 0)
(1.46494e-05 -7.38578e-06 0)
(1.66555e-05 -6.23869e-06 0)
(-7.54526e-05 -1.22608e-05 0)
(-2.71505e-05 -1.19607e-05 0)
(-2.02824e-05 -1.08262e-05 0)
(-1.29238e-05 -9.65763e-06 0)
(-5.41836e-06 -8.47872e-06 0)
(1.44715e-06 -7.33253e-06 0)
(7.08724e-06 -6.26644e-06 0)
(1.14168e-05 -5.31335e-06 0)
(1.45194e-05 -4.48677e-06 0)
(1.65598e-05 -3.78532e-06 0)
(-7.63007e-05 -4.04955e-06 0)
(-2.74079e-05 -3.96418e-06 0)
(-2.04491e-05 -3.60029e-06 0)
(-1.30347e-05 -3.22064e-06 0)
(-5.49855e-06 -2.8339e-06 0)
(1.38307e-06 -2.45516e-06 0)
(7.03216e-06 -2.10079e-06 0)
(1.13694e-05 -1.78237e-06 0)
(1.44819e-05 -1.50509e-06 0)
(1.65351e-05 -1.26912e-06 0)
(-7.63007e-05 4.04957e-06 0)
(-2.74078e-05 3.9642e-06 0)
(-2.04491e-05 3.60031e-06 0)
(-1.30347e-05 3.22067e-06 0)
(-5.49855e-06 2.83393e-06 0)
(1.38308e-06 2.4552e-06 0)
(7.03216e-06 2.10083e-06 0)
(1.13694e-05 1.78241e-06 0)
(1.44819e-05 1.50514e-06 0)
(1.65351e-05 1.26917e-06 0)
(-7.54526e-05 1.22609e-05 0)
(-2.71505e-05 1.19607e-05 0)
(-2.02824e-05 1.08262e-05 0)
(-1.29238e-05 9.65765e-06 0)
(-5.41835e-06 8.47874e-06 0)
(1.44716e-06 7.33256e-06 0)
(7.08725e-06 6.26648e-06 0)
(1.14168e-05 5.31339e-06 0)
(1.45195e-05 4.48682e-06 0)
(1.65598e-05 3.78537e-06 0)
(-7.37573e-05 2.08114e-05 0)
(-2.66178e-05 2.01559e-05 0)
(-1.99132e-05 1.81186e-05 0)
(-1.26481e-05 1.60737e-05 0)
(-5.19228e-06 1.40494e-05 0)
(1.64537e-06 1.21086e-05 0)
(7.2659e-06 1.03243e-05 0)
(1.15743e-05 8.74487e-06 0)
(1.46494e-05 7.38581e-06 0)
(1.66555e-05 6.23873e-06 0)
(-7.12227e-05 2.99343e-05 0)
(-2.57726e-05 2.86618e-05 0)
(-1.92653e-05 2.54926e-05 0)
(-1.20936e-05 2.24326e-05 0)
(-4.6848e-06 1.94842e-05 0)
(2.11923e-06 1.67126e-05 0)
(7.70385e-06 1.42067e-05 0)
(1.19642e-05 1.202e-05 0)
(1.49769e-05 1.01594e-05 0)
(1.69096e-05 8.60067e-06 0)
(-6.78981e-05 3.99008e-05 0)
(-2.45462e-05 3.75799e-05 0)
(-1.82048e-05 3.29391e-05 0)
(-1.10717e-05 2.86858e-05 0)
(-3.68282e-06 2.47222e-05 0)
(3.08285e-06 2.10849e-05 0)
(8.60014e-06 1.78651e-05 0)
(1.27609e-05 1.51065e-05 0)
(1.56478e-05 1.27918e-05 0)
(1.74404e-05 1.08689e-05 0)
(-6.37983e-05 5.11299e-05 0)
(-2.27615e-05 4.70524e-05 0)
(-1.65124e-05 4.04229e-05 0)
(-9.30823e-06 3.47538e-05 0)
(-1.89462e-06 2.96813e-05 0)
(4.81754e-06 2.5159e-05 0)
(1.02065e-05 2.1258e-05 0)
(1.4176e-05 1.79886e-05 0)
(1.68322e-05 1.52873e-05 0)
(1.8381e-05 1.30609e-05 0)
(-5.85295e-05 6.36029e-05 0)
(-2.01822e-05 5.70152e-05 0)
(-1.40309e-05 4.76168e-05 0)
(-6.52822e-06 4.02755e-05 0)
(1.02245e-06 3.4049e-05 0)
(7.66569e-06 2.86958e-05 0)
(1.2822e-05 2.42201e-05 0)
(1.64489e-05 2.05583e-05 0)
(1.87114e-05 1.75759e-05 0)
(1.98656e-05 1.5129e-05 0)
(-5.45791e-05 7.40399e-05 0)
(-1.78786e-05 6.60078e-05 0)
(-1.1435e-05 5.3567e-05 0)
(-2.64955e-06 4.46463e-05 0)
(5.51236e-06 3.7444e-05 0)
(1.21215e-05 3.14814e-05 0)
(1.6862e-05 2.66529e-05 0)
(1.98886e-05 2.27798e-05 0)
(2.15039e-05 1.96462e-05 0)
(2.20489e-05 1.70654e-05 0)
(-8.5019e-05 7.02088e-05 0)
(-2.13682e-05 7.34975e-05 0)
(-9.994e-06 5.81486e-05 0)
(3.01807e-06 4.90516e-05 0)
(1.27966e-05 4.13951e-05 0)
(1.92394e-05 3.51316e-05 0)
(2.30683e-05 3.01201e-05 0)
(2.49726e-05 2.60866e-05 0)
(2.55084e-05 2.27725e-05 0)
(2.51225e-05 1.99875e-05 0)
(-0.00026517 0.000312885 0)
(-4.89198e-06 0.000137229 0)
(-1.10731e-06 0.000104587 0)
(1.69345e-05 9.30262e-05 0)
(2.61523e-05 8.15494e-05 0)
(3.01249e-05 7.11188e-05 0)
(3.12129e-05 6.21849e-05 0)
(3.0735e-05 5.45672e-05 0)
(2.93932e-05 4.80245e-05 0)
(2.76049e-05 4.2348e-05 0)
)
;

boundaryField
{
    leftWall
    {
        type            noSlip;
    }
    rightWall
    {
        type            noSlip;
    }
    topWall
    {
        type            noSlip;
    }
    bottomWall
    {
        type            noSlip;
    }
    frontAndBackPlanes
    {
        type            empty;
    }
    procBoundary1to0
    {
        type            processor;
        value           nonuniform List<vector> 
20
(
(2.56239e-05 -3.73703e-05 0)
(2.41572e-05 -1.75984e-05 0)
(2.18423e-05 -1.4896e-05 0)
(2.01908e-05 -1.3094e-05 0)
(1.90701e-05 -1.12163e-05 0)
(1.83657e-05 -9.27489e-06 0)
(1.79772e-05 -7.30501e-06 0)
(1.78018e-05 -5.28211e-06 0)
(1.77448e-05 -3.19877e-06 0)
(1.77354e-05 -1.0715e-06 0)
(1.77354e-05 1.07155e-06 0)
(1.77449e-05 3.19882e-06 0)
(1.78018e-05 5.28215e-06 0)
(1.79772e-05 7.30504e-06 0)
(1.83657e-05 9.27491e-06 0)
(1.90701e-05 1.12164e-05 0)
(2.01908e-05 1.3094e-05 0)
(2.18423e-05 1.4896e-05 0)
(2.41573e-05 1.75984e-05 0)
(2.56239e-05 3.73702e-05 0)
)
;
    }
}


// ************************************************************************* //
