/*--------------------------------*- C++ -*----------------------------------*\
| =========                 |                                                 |
| \\      /  F ield         | OpenFOAM: The Open Source CFD Toolbox           |
|  \\    /   O peration     | Version:  2506                                  |
|   \\  /    A nd           | Website:  www.openfoam.com                      |
|    \\/     M anipulation  |                                                 |
\*---------------------------------------------------------------------------*/
FoamFile
{
    version     2.0;
    format      ascii;
    arch        "LSB;label=32;scalar=64";
    class       volScalarField;
    location    "0.2184";
    object      alphat;
}
// * * * * * * * * * * * * * * * * * * * * * * * * * * * * * * * * * * * * * //

dimensions      [1 -1 -1 0 0 0 0];

internalField   nonuniform List<scalar> 
200
(
0.524624
0.524595
0.524512
0.524261
0.52348
0.521021
0.513214
0.488589
0.416164
0.264204
5.61909
5.61855
5.6168
5.61151
5.59575
5.54922
5.41356
5.02266
3.87238
0.416165
7.89341
7.89235
7.88891
7.8787
7.84888
7.76288
7.51953
6.8473
5.02267
0.488589
8.80887
8.80743
8.80277
8.78912
8.74992
8.63927
8.33416
7.51953
5.41356
0.513214
9.16489
9.16321
9.15779
9.14209
9.09765
8.97411
8.63927
7.76288
5.54921
0.52102
9.2987
9.29688
9.29104
9.27427
9.22721
9.09765
8.74992
7.84887
5.59575
0.523477
9.34776
9.34587
9.33982
9.32252
9.27427
9.14209
8.78911
7.8787
5.6115
0.524254
9.36543
9.3635
9.35735
9.33982
9.29104
9.15779
8.80277
7.8889
5.61678
0.524502
9.37165
9.3697
9.3635
9.34587
9.29688
9.1632
8.80742
7.89233
5.61852
0.524581
9.3736
9.37165
9.36543
9.34776
9.2987
9.16488
8.80885
7.89337
5.61904
0.524604
9.3736
9.37165
9.36543
9.34776
9.2987
9.16488
8.80885
7.89337
5.61904
0.524604
9.37165
9.3697
9.3635
9.34587
9.29687
9.1632
8.80742
7.89233
5.61852
0.524581
9.36543
9.3635
9.35735
9.33982
9.29104
9.15779
8.80277
7.8889
5.61678
0.524502
9.34776
9.34587
9.33982
9.32252
9.27427
9.14209
8.78911
7.8787
5.6115
0.524254
9.2987
9.29688
9.29104
9.27427
9.22721
9.09765
8.74992
7.84887
5.59575
0.523477
9.16489
9.16321
9.15779
9.14209
9.09765
8.97411
8.63927
7.76288
5.54921
0.52102
8.80887
8.80743
8.80277
8.78912
8.74992
8.63927
8.33416
7.51953
5.41356
0.513214
7.8934
7.89235
7.88891
7.8787
7.84888
7.76288
7.51953
6.8473
5.02267
0.488589
5.61908
5.61855
5.6168
5.61151
5.59575
5.54922
5.41356
5.02266
3.87238
0.416165
0.524622
0.524595
0.524512
0.52426
0.52348
0.521021
0.513214
0.488589
0.416164
0.264204
)
;

boundaryField
{
    leftWall
    {
        type            compressible::alphatWallFunction;
        value           nonuniform List<scalar> 0();
    }
    rightWall
    {
        type            compressible::alphatWallFunction;
        value           nonuniform List<scalar> 
20
(
0.0942302
0.110742
0.115895
0.1174
0.117849
0.117986
0.118028
0.118041
0.118045
0.118046
0.118046
0.118045
0.118041
0.118028
0.117986
0.117849
0.1174
0.115895
0.110742
0.0942302
)
;
    }
    topWall
    {
        type            compressible::alphatWallFunction;
        value           nonuniform List<scalar> 10(0.118048 0.118046 0.118042 0.118028 0.117986 0.117849 0.1174 0.115895 0.110742 0.0942302);
    }
    bottomWall
    {
        type            compressible::alphatWallFunction;
        value           nonuniform List<scalar> 10(0.118048 0.118046 0.118042 0.118028 0.117986 0.117849 0.1174 0.115895 0.110742 0.0942302);
    }
    frontAndBackPlanes
    {
        type            empty;
    }
    procBoundary0to1
    {
        type            processor;
        value           nonuniform List<scalar> 
20
(
0.524628
5.6191
7.89341
8.80887
9.16488
9.29869
9.34775
9.36542
9.37163
9.37359
9.37359
9.37163
9.36542
9.34775
9.29869
9.16488
8.80887
7.89341
5.61911
0.52463
)
;
    }
}


// ************************************************************************* //
