/*--------------------------------*- C++ -*----------------------------------*\
| =========                 |                                                 |
| \\      /  F ield         | OpenFOAM: The Open Source CFD Toolbox           |
|  \\    /   O peration     | Version:  2506                                  |
|   \\  /    A nd           | Website:  www.openfoam.com                      |
|    \\/     M anipulation  |                                                 |
\*---------------------------------------------------------------------------*/
FoamFile
{
    version     2.0;
    format      ascii;
    arch        "LSB;label=32;scalar=64";
    class       volVectorField;
    location    "0.2184";
    object      U;
}
// * * * * * * * * * * * * * * * * * * * * * * * * * * * * * * * * * * * * * //

dimensions      [0 1 -1 0 0 0 0];

internalField   nonuniform List<vector> 
200
(
(9.72098e-06 -3.50848e-05 0)
(8.37482e-06 -2.9711e-05 0)
(7.27425e-06 -2.50104e-05 0)
(6.37147e-06 -2.08779e-05 0)
(5.6266e-06 -1.72271e-05 0)
(5.004e-06 -1.39914e-05 0)
(4.46694e-06 -1.11315e-05 0)
(3.98432e-06 -8.69332e-06 0)
(3.88482e-06 -6.85524e-06 0)
(4.54839e-06 -4.48899e-06 0)
(1.27942e-05 -2.11928e-05 0)
(1.10531e-05 -1.80698e-05 0)
(9.62073e-06 -1.52972e-05 0)
(8.44239e-06 -1.28304e-05 0)
(7.47301e-06 -1.0631e-05 0)
(6.67729e-06 -8.67314e-06 0)
(6.02045e-06 -6.96049e-06 0)
(5.49467e-06 -5.58075e-06 0)
(5.39419e-06 -4.68676e-06 0)
(7.08237e-06 -3.49465e-06 0)
(1.41149e-05 -1.81654e-05 0)
(1.22634e-05 -1.55562e-05 0)
(1.07259e-05 -1.32143e-05 0)
(9.45446e-06 -1.11104e-05 0)
(8.40927e-06 -9.2191e-06 0)
(7.55889e-06 -7.5266e-06 0)
(6.86317e-06 -6.04885e-06 0)
(6.29099e-06 -4.86754e-06 0)
(6.18675e-06 -4.10452e-06 0)
(8.56813e-06 -3.03536e-06 0)
(1.5801e-05 -1.62241e-05 0)
(1.38153e-05 -1.39464e-05 0)
(1.21498e-05 -1.1882e-05 0)
(1.07633e-05 -1.00122e-05 0)
(9.62091e-06 -8.32102e-06 0)
(8.69318e-06 -6.80368e-06 0)
(7.9327e-06 -5.48326e-06 0)
(7.29424e-06 -4.43615e-06 0)
(7.18066e-06 -3.759e-06 0)
(1.01947e-05 -2.83605e-06 0)
(1.7582e-05 -1.40121e-05 0)
(1.54607e-05 -1.20882e-05 0)
(1.36645e-05 -1.03284e-05 0)
(1.21587e-05 -8.72295e-06 0)
(1.09125e-05 -7.26368e-06 0)
(9.89725e-06 -5.95218e-06 0)
(9.05865e-06 -4.8141e-06 0)
(8.3406e-06 -3.91811e-06 0)
(8.2091e-06 -3.34497e-06 0)
(1.17669e-05 -2.54936e-06 0)
(1.9207e-05 -1.16049e-05 0)
(1.69713e-05 -1.00455e-05 0)
(1.50619e-05 -8.60666e-06 0)
(1.34504e-05 -7.28532e-06 0)
(1.21095e-05 -6.07911e-06 0)
(1.10114e-05 -4.99323e-06 0)
(1.00957e-05 -4.0524e-06 0)
(9.29797e-06 -3.31552e-06 0)
(9.14288e-06 -2.84834e-06 0)
(1.31647e-05 -2.18298e-06 0)
(2.05535e-05 -9.10341e-06 0)
(1.82322e-05 -7.90379e-06 0)
(1.62348e-05 -6.78815e-06 0)
(1.45385e-05 -5.75775e-06 0)
(1.31199e-05 -4.81356e-06 0)
(1.19516e-05 -3.96212e-06 0)
(1.09692e-05 -3.22475e-06 0)
(1.01023e-05 -2.6488e-06 0)
(9.92661e-06 -2.28528e-06 0)
(1.43337e-05 -1.75561e-06 0)
(2.1573e-05 -6.54029e-06 0)
(1.91937e-05 -5.6921e-06 0)
(1.71338e-05 -4.8982e-06 0)
(1.53756e-05 -4.16155e-06 0)
(1.38987e-05 -3.48446e-06 0)
(1.2677e-05 -2.87291e-06 0)
(1.16428e-05 -2.34318e-06 0)
(1.07226e-05 -1.92985e-06 0)
(1.05321e-05 -1.66936e-06 0)
(1.5238e-05 -1.28371e-06 0)
(2.2252e-05 -3.93792e-06 0)
(1.98378e-05 -3.43299e-06 0)
(1.77386e-05 -2.95823e-06 0)
(1.59405e-05 -2.51625e-06 0)
(1.44253e-05 -2.10911e-06 0)
(1.31678e-05 -1.74094e-06 0)
(1.20989e-05 -1.42189e-06 0)
(1.11429e-05 -1.173e-06 0)
(1.09432e-05 -1.01621e-06 0)
(1.58532e-05 -7.81754e-07 0)
(2.25903e-05 -1.31476e-06 0)
(2.016e-05 -1.14717e-06 0)
(1.8042e-05 -9.8922e-07 0)
(1.62244e-05 -8.41927e-07 0)
(1.46902e-05 -7.06091e-07 0)
(1.3415e-05 -5.83169e-07 0)
(1.23286e-05 -4.76619e-07 0)
(1.13548e-05 -3.93503e-07 0)
(1.11508e-05 -3.41139e-07 0)
(1.61643e-05 -2.6247e-07 0)
(2.25903e-05 1.31475e-06 0)
(2.016e-05 1.14716e-06 0)
(1.8042e-05 9.89214e-07 0)
(1.62244e-05 8.41922e-07 0)
(1.46902e-05 7.06087e-07 0)
(1.3415e-05 5.83166e-07 0)
(1.23286e-05 4.76616e-07 0)
(1.13548e-05 3.93502e-07 0)
(1.11508e-05 3.41138e-07 0)
(1.61643e-05 2.6247e-07 0)
(2.2252e-05 3.93791e-06 0)
(1.98378e-05 3.43298e-06 0)
(1.77386e-05 2.95822e-06 0)
(1.59405e-05 2.51624e-06 0)
(1.44253e-05 2.10911e-06 0)
(1.31678e-05 1.74093e-06 0)
(1.20989e-05 1.42188e-06 0)
(1.11429e-05 1.173e-06 0)
(1.09432e-05 1.01621e-06 0)
(1.58532e-05 7.81754e-07 0)
(2.1573e-05 6.54029e-06 0)
(1.91937e-05 5.69209e-06 0)
(1.71338e-05 4.8982e-06 0)
(1.53756e-05 4.16155e-06 0)
(1.38987e-05 3.48446e-06 0)
(1.2677e-05 2.87291e-06 0)
(1.16428e-05 2.34318e-06 0)
(1.07226e-05 1.92984e-06 0)
(1.05321e-05 1.66936e-06 0)
(1.5238e-05 1.28371e-06 0)
(2.05535e-05 9.1034e-06 0)
(1.82322e-05 7.90378e-06 0)
(1.62348e-05 6.78815e-06 0)
(1.45385e-05 5.75774e-06 0)
(1.31199e-05 4.81356e-06 0)
(1.19516e-05 3.96212e-06 0)
(1.09692e-05 3.22475e-06 0)
(1.01023e-05 2.6488e-06 0)
(9.92661e-06 2.28528e-06 0)
(1.43338e-05 1.75561e-06 0)
(1.9207e-05 1.16048e-05 0)
(1.69713e-05 1.00455e-05 0)
(1.50619e-05 8.60665e-06 0)
(1.34504e-05 7.28532e-06 0)
(1.21095e-05 6.0791e-06 0)
(1.10114e-05 4.99323e-06 0)
(1.00957e-05 4.0524e-06 0)
(9.29797e-06 3.31552e-06 0)
(9.14288e-06 2.84834e-06 0)
(1.31647e-05 2.18298e-06 0)
(1.7582e-05 1.40121e-05 0)
(1.54607e-05 1.20882e-05 0)
(1.36645e-05 1.03284e-05 0)
(1.21587e-05 8.72294e-06 0)
(1.09125e-05 7.26368e-06 0)
(9.89726e-06 5.95218e-06 0)
(9.05865e-06 4.8141e-06 0)
(8.3406e-06 3.91811e-06 0)
(8.20911e-06 3.34497e-06 0)
(1.17669e-05 2.54937e-06 0)
(1.5801e-05 1.62241e-05 0)
(1.38153e-05 1.39463e-05 0)
(1.21498e-05 1.1882e-05 0)
(1.07633e-05 1.00122e-05 0)
(9.62092e-06 8.32102e-06 0)
(8.69318e-06 6.80368e-06 0)
(7.9327e-06 5.48326e-06 0)
(7.29424e-06 4.43615e-06 0)
(7.18066e-06 3.759e-06 0)
(1.01947e-05 2.83605e-06 0)
(1.41149e-05 1.81654e-05 0)
(1.22634e-05 1.55562e-05 0)
(1.07259e-05 1.32143e-05 0)
(9.45446e-06 1.11104e-05 0)
(8.40927e-06 9.21911e-06 0)
(7.5589e-06 7.5266e-06 0)
(6.86318e-06 6.04885e-06 0)
(6.29099e-06 4.86754e-06 0)
(6.18675e-06 4.10452e-06 0)
(8.56814e-06 3.03536e-06 0)
(1.27942e-05 2.11928e-05 0)
(1.10531e-05 1.80698e-05 0)
(9.62073e-06 1.52972e-05 0)
(8.4424e-06 1.28304e-05 0)
(7.47302e-06 1.0631e-05 0)
(6.6773e-06 8.67314e-06 0)
(6.02045e-06 6.96049e-06 0)
(5.49467e-06 5.58076e-06 0)
(5.39419e-06 4.68676e-06 0)
(7.08238e-06 3.49465e-06 0)
(9.72097e-06 3.50849e-05 0)
(8.37481e-06 2.9711e-05 0)
(7.27425e-06 2.50104e-05 0)
(6.37147e-06 2.08779e-05 0)
(5.6266e-06 1.72271e-05 0)
(5.004e-06 1.39914e-05 0)
(4.46694e-06 1.11316e-05 0)
(3.98432e-06 8.69332e-06 0)
(3.88482e-06 6.85524e-06 0)
(4.54839e-06 4.48899e-06 0)
)
;

boundaryField
{
    leftWall
    {
        type            noSlip;
    }
    rightWall
    {
        type            noSlip;
    }
    topWall
    {
        type            noSlip;
    }
    bottomWall
    {
        type            noSlip;
    }
    frontAndBackPlanes
    {
        type            empty;
    }
    procBoundary0to1
    {
        type            processor;
        value           nonuniform List<vector> 
20
(
(1.1372e-05 -4.12557e-05 0)
(1.49069e-05 -2.47128e-05 0)
(1.63321e-05 -2.10707e-05 0)
(1.81479e-05 -1.87322e-05 0)
(2.00596e-05 -1.61068e-05 0)
(2.17906e-05 -1.32836e-05 0)
(2.32112e-05 -1.03814e-05 0)
(2.42765e-05 -7.43605e-06 0)
(2.49803e-05 -4.46781e-06 0)
(2.53292e-05 -1.49005e-06 0)
(2.53292e-05 1.49004e-06 0)
(2.49803e-05 4.46781e-06 0)
(2.42765e-05 7.43605e-06 0)
(2.32112e-05 1.03814e-05 0)
(2.17906e-05 1.32836e-05 0)
(2.00596e-05 1.61068e-05 0)
(1.81479e-05 1.87322e-05 0)
(1.63321e-05 2.10707e-05 0)
(1.49069e-05 2.47128e-05 0)
(1.1372e-05 4.12557e-05 0)
)
;
    }
}


// ************************************************************************* //
