/*--------------------------------*- C++ -*----------------------------------*\
| =========                 |                                                 |
| \\      /  F ield         | OpenFOAM: The Open Source CFD Toolbox           |
|  \\    /   O peration     | Version:  2506                                  |
|   \\  /    A nd           | Website:  www.openfoam.com                      |
|    \\/     M anipulation  |                                                 |
\*---------------------------------------------------------------------------*/
FoamFile
{
    version     2.0;
    format      ascii;
    arch        "LSB;label=32;scalar=64";
    class       volScalarField;
    location    "2.37483013";
    object      alphat;
}
// * * * * * * * * * * * * * * * * * * * * * * * * * * * * * * * * * * * * * //

dimensions      [1 -1 -1 0 0 0 0];

internalField   nonuniform List<scalar> 
200
(
0.076682
0.138793
0.166137
0.18241
0.193534
0.201538
0.207335
0.2114
0.213994
0.215263
0.13861
1.22028
1.74974
2.03618
2.21868
2.34385
2.43153
2.49157
2.5293
2.54757
0.165865
1.74886
2.85306
3.52212
3.95934
4.25918
4.46793
4.61
4.69886
4.74177
0.182085
2.03469
3.52121
4.49833
5.16246
5.6258
5.95049
6.17189
6.31038
6.37723
0.19317
2.21674
3.95766
5.16158
6.00593
6.6057
7.03007
7.32087
7.50318
7.59126
0.201146
2.34159
4.25689
5.62414
6.60486
7.31192
7.81685
8.16472
8.38347
8.4893
0.206921
2.42901
4.46515
5.94819
7.0285
7.81608
8.38276
8.77506
9.02246
9.14233
0.210968
2.48885
4.60683
6.16905
7.31867
8.16327
8.77436
9.19899
9.4674
9.5976
0.21355
2.52642
4.69537
6.3071
7.50046
8.38144
9.02115
9.46678
9.74891
9.88589
0.214809
2.54458
4.73804
6.37361
7.58811
8.4868
9.14051
9.59645
9.88535
10.0257
0.214809
2.54458
4.73804
6.37361
7.58811
8.4868
9.14051
9.59645
9.88535
10.0257
0.21355
2.52642
4.69537
6.3071
7.50046
8.38144
9.02115
9.46678
9.74891
9.88589
0.210968
2.48885
4.60683
6.16905
7.31867
8.16327
8.77436
9.19899
9.4674
9.5976
0.206921
2.42901
4.46515
5.94818
7.0285
7.81608
8.38276
8.77506
9.02246
9.14233
0.201146
2.34159
4.25689
5.62414
6.60486
7.31192
7.81685
8.16472
8.38347
8.4893
0.19317
2.21674
3.95766
5.16158
6.00593
6.6057
7.03007
7.32087
7.50318
7.59126
0.182085
2.03469
3.52121
4.49833
5.16246
5.6258
5.95049
6.1719
6.31038
6.37723
0.165865
1.74886
2.85306
3.52212
3.95934
4.25918
4.46793
4.61
4.69886
4.74177
0.13861
1.22028
1.74974
2.03618
2.21868
2.34385
2.43153
2.49157
2.5293
2.54757
0.076682
0.138793
0.166137
0.18241
0.193534
0.201538
0.207335
0.2114
0.213994
0.215263
)
;

boundaryField
{
    leftWall
    {
        type            compressible::alphatWallFunction;
        value           nonuniform List<scalar> 
20
(
0.014755
0.0244074
0.0284856
0.0308475
0.0324255
0.0335377
0.0343285
0.0348743
0.0352185
0.0353852
0.0353852
0.0352185
0.0348743
0.0343285
0.0335377
0.0324255
0.0308475
0.0284856
0.0244074
0.014755
)
;
    }
    rightWall
    {
        type            compressible::alphatWallFunction;
        value           nonuniform List<scalar> 0();
    }
    topWall
    {
        type            compressible::alphatWallFunction;
        value           nonuniform List<scalar> 10(0.0172211 0.0291119 0.0341083 0.0369956 0.038922 0.0402786 0.0412426 0.0419076 0.0423268 0.0425297);
    }
    bottomWall
    {
        type            compressible::alphatWallFunction;
        value           nonuniform List<scalar> 10(0.0172211 0.0291119 0.0341083 0.0369956 0.038922 0.0402786 0.0412426 0.0419076 0.0423268 0.0425297);
    }
    frontAndBackPlanes
    {
        type            empty;
    }
    procBoundary1to0
    {
        type            processor;
        value           nonuniform List<scalar> 
20
(
0.215268
2.54765
4.74194
6.37748
7.59157
8.48967
9.14273
9.59803
9.88633
10.0261
10.0261
9.88633
9.59803
9.14273
8.48967
7.59158
6.37749
4.74195
2.54765
0.215268
)
;
    }
}


// ************************************************************************* //
