/*--------------------------------*- C++ -*----------------------------------*\
| =========                 |                                                 |
| \\      /  F ield         | OpenFOAM: The Open Source CFD Toolbox           |
|  \\    /   O peration     | Version:  2506                                  |
|   \\  /    A nd           | Website:  www.openfoam.com                      |
|    \\/     M anipulation  |                                                 |
\*---------------------------------------------------------------------------*/
FoamFile
{
    version     2.0;
    format      ascii;
    arch        "LSB;label=32;scalar=64";
    class       surfaceScalarField;
    location    "2.37483013";
    object      phi;
}
// * * * * * * * * * * * * * * * * * * * * * * * * * * * * * * * * * * * * * //

dimensions      [1 0 -1 0 0 0 0];

oriented        oriented;

internalField   nonuniform List<scalar> 
370
(
-7.99338e-06
-9.74725e-06
-2.81906e-06
-5.10331e-06
-5.81299e-07
-3.78805e-06
7.00006e-07
-3.38649e-06
1.4679e-06
-2.96122e-06
1.93733e-06
-2.58125e-06
2.23101e-06
-2.25219e-06
2.41479e-06
-1.96375e-06
2.52444e-06
-1.71085e-06
-1.49054e-06
-1.91158e-06
-6.39319e-06
-1.29394e-06
-5.00593e-06
-3.94726e-07
-4.0166e-06
2.55413e-07
-3.40913e-06
7.65756e-07
-2.88896e-06
1.16628e-06
-2.44609e-06
1.47757e-06
-2.07623e-06
1.71922e-06
-1.76711e-06
1.90561e-06
-1.50742e-06
-1.28896e-06
-4.04999e-07
-5.26313e-06
-4.31095e-07
-4.31502e-06
-1.97596e-07
-3.61305e-06
8.29831e-08
-3.0819e-06
3.84158e-07
-2.61622e-06
6.81251e-07
-2.2075e-06
9.57346e-07
-1.85818e-06
1.20471e-06
-1.56396e-06
1.42084e-06
-1.31752e-06
-1.11201e-06
-4.70795e-07
-4.48286e-06
-4.31839e-07
-3.72551e-06
-3.0522e-07
-3.13023e-06
-1.28413e-07
-2.66983e-06
8.99193e-08
-2.2718e-06
3.33311e-07
-1.91967e-06
5.83871e-07
-1.61343e-06
8.28057e-07
-1.35185e-06
1.05717e-06
-1.13117e-06
-9.4696e-07
-5.91302e-07
-3.72509e-06
-5.8671e-07
-3.12715e-06
-4.95943e-07
-2.63283e-06
-3.51139e-07
-2.24161e-06
-1.63245e-07
-1.90731e-06
5.60503e-08
-1.61302e-06
2.92718e-07
-1.35556e-06
5.33942e-07
-1.13371e-06
7.69766e-07
-9.4528e-07
-7.87518e-07
-6.95616e-07
-2.97079e-06
-7.26822e-07
-2.51062e-06
-6.67177e-07
-2.12006e-06
-5.43988e-07
-1.80417e-06
-3.73062e-07
-1.53446e-06
-1.66993e-07
-1.29799e-06
6.15055e-08
-1.09087e-06
3.00529e-07
-9.11624e-07
5.40047e-07
-7.58716e-07
-6.30361e-07
-7.90294e-07
-2.22174e-06
-8.40711e-07
-1.88686e-06
-8.02694e-07
-1.59693e-06
-6.96129e-07
-1.3593e-06
-5.37552e-07
-1.15588e-06
-3.40562e-07
-9.77821e-07
-1.17748e-07
-8.2184e-07
1.19345e-07
-6.8657e-07
3.60715e-07
-5.70889e-07
-4.73618e-07
-8.65114e-07
-1.47755e-06
-9.26959e-07
-1.25954e-06
-9.02711e-07
-1.06769e-06
-8.0785e-07
-9.09138e-07
-6.58254e-07
-7.73064e-07
-4.67818e-07
-6.53992e-07
-2.49183e-07
-5.49692e-07
-1.38036e-08
-4.59158e-07
2.28308e-07
-3.81631e-07
-3.16378e-07
-9.15407e-07
-7.37523e-07
-9.84024e-07
-6.30193e-07
-9.6822e-07
-5.34746e-07
-8.80903e-07
-4.55466e-07
-7.3727e-07
-3.87301e-07
-5.51225e-07
-3.2765e-07
-3.35448e-07
-2.75403e-07
-1.01393e-07
-2.30035e-07
1.40894e-07
-1.9116e-07
-1.58424e-07
-9.40545e-07
2.60519e-12
-1.01225e-06
2.41217e-12
-1.00051e-06
2.28941e-12
-9.16931e-07
2.26611e-12
-7.76303e-07
2.29451e-12
-5.92487e-07
2.35717e-12
-3.78183e-07
2.44565e-12
-1.44855e-07
2.54912e-12
9.74209e-08
2.65384e-12
2.72791e-12
-9.40544e-07
7.37528e-07
-1.01225e-06
6.30198e-07
-1.00051e-06
5.34751e-07
-9.16931e-07
4.5547e-07
-7.76303e-07
3.87305e-07
-5.92487e-07
3.27655e-07
-3.78183e-07
2.75408e-07
-1.44855e-07
2.3004e-07
9.74209e-08
1.91165e-07
1.58429e-07
-9.15407e-07
1.47755e-06
-9.84024e-07
1.25954e-06
-9.6822e-07
1.06769e-06
-8.80903e-07
9.09143e-07
-7.3727e-07
7.73068e-07
-5.51225e-07
6.53996e-07
-3.35449e-07
5.49697e-07
-1.01393e-07
4.59163e-07
1.40894e-07
3.81636e-07
3.16383e-07
-8.65113e-07
2.22175e-06
-9.26958e-07
1.88686e-06
-9.02711e-07
1.59694e-06
-8.0785e-07
1.3593e-06
-6.58253e-07
1.15589e-06
-4.67818e-07
9.77826e-07
-2.49183e-07
8.21844e-07
-1.38039e-08
6.86575e-07
2.28307e-07
5.70894e-07
4.73623e-07
-7.90293e-07
2.97079e-06
-8.4071e-07
2.51062e-06
-8.02693e-07
2.12007e-06
-6.96128e-07
1.80417e-06
-5.37551e-07
1.53446e-06
-3.40562e-07
1.298e-06
-1.17748e-07
1.09088e-06
1.19344e-07
9.11628e-07
3.60715e-07
7.5872e-07
6.30366e-07
-6.95615e-07
3.7251e-06
-7.26821e-07
3.12715e-06
-6.67176e-07
2.63283e-06
-5.43987e-07
2.24161e-06
-3.73061e-07
1.90731e-06
-1.66993e-07
1.61302e-06
6.15055e-08
1.35556e-06
3.00529e-07
1.13371e-06
5.40047e-07
9.45285e-07
7.87522e-07
-5.91301e-07
4.48286e-06
-5.86709e-07
3.72551e-06
-4.95942e-07
3.13023e-06
-3.51138e-07
2.66983e-06
-1.63244e-07
2.2718e-06
5.60506e-08
1.91967e-06
2.92718e-07
1.61343e-06
5.33942e-07
1.35185e-06
7.69765e-07
1.13117e-06
9.46964e-07
-4.70793e-07
5.26314e-06
-4.31837e-07
4.31502e-06
-3.05219e-07
3.61305e-06
-1.28412e-07
3.0819e-06
8.992e-08
2.61622e-06
3.33311e-07
2.2075e-06
5.83872e-07
1.85819e-06
8.28057e-07
1.56396e-06
1.05717e-06
1.31752e-06
1.11202e-06
-4.04998e-07
6.39319e-06
-4.31093e-07
5.00593e-06
-1.97595e-07
4.0166e-06
8.29842e-08
3.40913e-06
3.84159e-07
2.88896e-06
6.81252e-07
2.44609e-06
9.57346e-07
2.07623e-06
1.20471e-06
1.76711e-06
1.42084e-06
1.50743e-06
1.28896e-06
-1.91158e-06
9.74725e-06
-1.29394e-06
5.10331e-06
-3.94725e-07
3.78805e-06
2.55414e-07
3.38649e-06
7.65756e-07
2.96123e-06
1.16628e-06
2.58125e-06
1.47757e-06
2.2522e-06
1.71922e-06
1.96375e-06
1.90561e-06
1.71085e-06
1.49054e-06
-7.99338e-06
-2.81906e-06
-5.81298e-07
7.00007e-07
1.4679e-06
1.93733e-06
2.23101e-06
2.4148e-06
2.52444e-06
)
;

boundaryField
{
    leftWall
    {
        type            calculated;
        value           nonuniform List<scalar> 
20
(
9.13258e-06
-6.76655e-07
-2.61896e-08
3.51548e-07
4.74062e-07
5.70559e-07
6.6439e-07
7.40912e-07
7.93885e-07
8.20942e-07
8.20941e-07
7.93884e-07
7.40912e-07
6.6439e-07
5.70559e-07
4.74062e-07
3.51547e-07
-2.61898e-08
-6.76655e-07
9.13258e-06
)
;
    }
    rightWall
    {
        type            calculated;
        value           nonuniform List<scalar> 0();
    }
    topWall
    {
        type            calculated;
        value           nonuniform List<scalar> 10(9.39401e-06 7.10548e-07 2.25316e-06 2.74009e-06 2.76666e-06 2.62621e-06 2.41571e-06 2.18203e-06 1.95087e-06 1.735e-06);
    }
    bottomWall
    {
        type            calculated;
        value           nonuniform List<scalar> 10(9.39401e-06 7.10549e-07 2.25316e-06 2.74009e-06 2.76666e-06 2.62621e-06 2.41572e-06 2.18203e-06 1.95088e-06 1.735e-06);
    }
    frontAndBackPlanes
    {
        type            empty;
    }
    procBoundary1to0
    {
        type            processor;
        value           nonuniform List<scalar> 
20
(
2.58065e-06
2.04686e-06
1.60575e-06
1.26617e-06
9.93134e-07
7.72228e-07
5.98164e-07
4.68738e-07
3.82865e-07
3.40031e-07
3.40031e-07
3.82865e-07
4.68737e-07
5.98163e-07
7.72228e-07
9.93134e-07
1.26617e-06
1.60575e-06
2.04686e-06
2.58065e-06
)
;
    }
}


// ************************************************************************* //
