/*--------------------------------*- C++ -*----------------------------------*\
| =========                 |                                                 |
| \\      /  F ield         | OpenFOAM: The Open Source CFD Toolbox           |
|  \\    /   O peration     | Version:  2506                                  |
|   \\  /    A nd           | Website:  www.openfoam.com                      |
|    \\/     M anipulation  |                                                 |
\*---------------------------------------------------------------------------*/
FoamFile
{
    version     2.0;
    format      ascii;
    arch        "LSB;label=32;scalar=64";
    class       volScalarField;
    location    "2.37483013";
    object      T;
}
// * * * * * * * * * * * * * * * * * * * * * * * * * * * * * * * * * * * * * //

dimensions      [0 0 0 1 0 0 0];

internalField   nonuniform List<scalar> 
200
(
288.333
279.205
276.958
275.892
275.207
274.715
274.343
274.056
273.831
273.652
285.351
279.606
277.594
276.438
275.66
275.093
274.661
274.324
274.056
273.842
284.338
279.511
277.718
276.625
275.854
275.276
274.827
274.471
274.184
273.953
283.943
279.415
277.747
276.713
275.966
275.393
274.94
274.575
274.279
274.037
283.746
279.35
277.751
276.761
276.037
275.473
275.022
274.654
274.353
274.104
283.63
279.309
277.751
276.79
276.084
275.53
275.083
274.715
274.41
274.158
283.556
279.282
277.751
276.808
276.116
275.571
275.127
274.76
274.454
274.199
283.509
279.265
277.75
276.821
276.138
275.598
275.158
274.792
274.486
274.229
283.48
279.256
277.75
276.829
276.151
275.616
275.177
274.813
274.507
274.249
283.467
279.251
277.751
276.832
276.158
275.624
275.187
274.823
274.517
274.259
283.467
279.251
277.751
276.832
276.158
275.624
275.187
274.823
274.517
274.259
283.48
279.256
277.75
276.829
276.151
275.616
275.177
274.813
274.507
274.249
283.509
279.265
277.75
276.821
276.138
275.598
275.158
274.792
274.486
274.229
283.556
279.282
277.751
276.808
276.116
275.571
275.127
274.76
274.454
274.199
283.63
279.309
277.751
276.79
276.084
275.53
275.083
274.715
274.41
274.158
283.746
279.35
277.751
276.761
276.037
275.473
275.022
274.654
274.353
274.104
283.943
279.415
277.747
276.713
275.966
275.393
274.94
274.575
274.279
274.037
284.338
279.511
277.718
276.625
275.854
275.276
274.827
274.471
274.184
273.953
285.351
279.606
277.594
276.438
275.66
275.093
274.661
274.324
274.056
273.842
288.333
279.205
276.958
275.892
275.207
274.715
274.343
274.056
273.831
273.652
)
;

boundaryField
{
    leftWall
    {
        type            fixedValue;
        value           uniform 373;
    }
    rightWall
    {
        type            fixedValue;
        value           nonuniform List<scalar> 0();
    }
    topWall
    {
        type            fixedValue;
        value           uniform 273;
    }
    bottomWall
    {
        type            fixedValue;
        value           uniform 273;
    }
    frontAndBackPlanes
    {
        type            empty;
    }
    procBoundary1to0
    {
        type            processor;
        value           nonuniform List<scalar> 
20
(
273.51
273.669
273.765
273.839
273.899
273.948
273.986
274.014
274.033
274.042
274.042
274.033
274.014
273.986
273.948
273.899
273.839
273.765
273.669
273.51
)
;
    }
}


// ************************************************************************* //
