/*--------------------------------*- C++ -*----------------------------------*\
| =========                 |                                                 |
| \\      /  F ield         | OpenFOAM: The Open Source CFD Toolbox           |
|  \\    /   O peration     | Version:  2506                                  |
|   \\  /    A nd           | Website:  www.openfoam.com                      |
|    \\/     M anipulation  |                                                 |
\*---------------------------------------------------------------------------*/
FoamFile
{
    version     2.0;
    format      ascii;
    arch        "LSB;label=32;scalar=64";
    class       volVectorField;
    location    "2.37483013";
    object      U;
}
// * * * * * * * * * * * * * * * * * * * * * * * * * * * * * * * * * * * * * //

dimensions      [0 1 -1 0 0 0 0];

internalField   nonuniform List<vector> 
200
(
(-0.000207176 -0.000226619 0)
(-1.03015e-05 -6.53125e-05 0)
(-1.18385e-05 -5.00651e-05 0)
(1.03736e-06 -4.71759e-05 0)
(9.1482e-06 -4.28459e-05 0)
(1.39196e-05 -3.82536e-05 0)
(1.68483e-05 -3.38823e-05 0)
(1.86974e-05 -2.98465e-05 0)
(1.98362e-05 -2.62087e-05 0)
(2.04763e-05 -2.29929e-05 0)
(-2.89667e-05 -3.12054e-05 0)
(-9.77233e-06 -3.79712e-05 0)
(-6.26761e-06 -3.25817e-05 0)
(-4.19043e-07 -2.86181e-05 0)
(4.31993e-06 -2.45116e-05 0)
(7.92164e-06 -2.09008e-05 0)
(1.07106e-05 -1.78672e-05 0)
(1.28877e-05 -1.53129e-05 0)
(1.45765e-05 -1.31472e-05 0)
(1.58696e-05 -1.13081e-05 0)
(-6.92259e-06 -4.41534e-05 0)
(-3.5352e-06 -3.66482e-05 0)
(-2.69293e-06 -3.02985e-05 0)
(-4.88531e-07 -2.5717e-05 0)
(1.89784e-06 -2.17892e-05 0)
(4.3051e-06 -1.83947e-05 0)
(6.60306e-06 -1.55209e-05 0)
(8.69964e-06 -1.31109e-05 0)
(1.05524e-05 -1.10937e-05 0)
(1.21526e-05 -9.4085e-06 0)
(-8.29811e-06 -3.95846e-05 0)
(-3.92123e-06 -3.24889e-05 0)
(-2.99202e-06 -2.70233e-05 0)
(-1.77224e-06 -2.2965e-05 0)
(-1.9931e-07 -1.95045e-05 0)
(1.67176e-06 -1.64647e-05 0)
(3.6714e-06 -1.38399e-05 0)
(5.66686e-06 -1.16114e-05 0)
(7.56958e-06 -9.73835e-06 0)
(9.32633e-06 -8.17696e-06 0)
(-9.89662e-06 -3.29886e-05 0)
(-5.13849e-06 -2.75104e-05 0)
(-4.30593e-06 -2.31142e-05 0)
(-3.42221e-06 -1.96878e-05 0)
(-2.12377e-06 -1.67509e-05 0)
(-4.72248e-07 -1.41595e-05 0)
(1.37697e-06 -1.18969e-05 0)
(3.30754e-06 -9.95407e-06 0)
(5.22912e-06 -8.3089e-06 0)
(7.07446e-06 -6.93369e-06 0)
(-1.11987e-05 -2.67695e-05 0)
(-6.18993e-06 -2.25583e-05 0)
(-5.55024e-06 -1.90317e-05 0)
(-4.88431e-06 -1.62017e-05 0)
(-3.74329e-06 -1.37818e-05 0)
(-2.21314e-06 -1.16558e-05 0)
(-4.50429e-07 -9.79424e-06 0)
(1.4386e-06 -8.18577e-06 0)
(3.36747e-06 -6.81603e-06 0)
(5.265e-06 -5.66753e-06 0)
(-1.24262e-05 -2.07688e-05 0)
(-7.0595e-06 -1.75978e-05 0)
(-6.55133e-06 -1.48775e-05 0)
(-6.04035e-06 -1.26604e-05 0)
(-5.01593e-06 -1.07649e-05 0)
(-3.5713e-06 -9.10524e-06 0)
(-1.86798e-06 -7.65169e-06 0)
(-9.5604e-09 -6.39214e-06 0)
(1.91957e-06 -5.31599e-06 0)
(3.84678e-06 -4.41172e-06 0)
(-1.34195e-05 -1.4801e-05 0)
(-7.72686e-06 -1.25924e-05 0)
(-7.29583e-06 -1.06651e-05 0)
(-6.89003e-06 -9.07809e-06 0)
(-5.94996e-06 -7.71814e-06 0)
(-4.56729e-06 -6.52849e-06 0)
(-2.90682e-06 -5.48665e-06 0)
(-1.07194e-06 -4.58268e-06 0)
(8.53642e-07 -3.80897e-06 0)
(2.79646e-06 -3.158e-06 0)
(-1.4096e-05 -8.86149e-06 0)
(-8.17102e-06 -7.56191e-06 0)
(-7.78474e-06 -6.41333e-06 0)
(-7.44552e-06 -5.46122e-06 0)
(-6.561e-06 -4.64327e-06 0)
(-5.21969e-06 -3.92769e-06 0)
(-3.58805e-06 -3.30104e-06 0)
(-1.7698e-06 -2.75701e-06 0)
(1.51423e-07 -2.29095e-06 0)
(2.10153e-06 -1.89857e-06 0)
(-1.44367e-05 -2.95018e-06 0)
(-8.39135e-06 -2.52151e-06 0)
(-8.02593e-06 -2.14008e-06 0)
(-7.71929e-06 -1.82281e-06 0)
(-6.86258e-06 -1.54986e-06 0)
(-5.5422e-06 -1.31103e-06 0)
(-3.92527e-06 -1.10188e-06 0)
(-2.11574e-06 -9.20266e-07 0)
(-1.97357e-07 -7.6463e-07 0)
(1.75546e-06 -6.3356e-07 0)
(-1.44367e-05 2.95022e-06 0)
(-8.39135e-06 2.52155e-06 0)
(-8.02593e-06 2.14011e-06 0)
(-7.71929e-06 1.82285e-06 0)
(-6.86258e-06 1.5499e-06 0)
(-5.5422e-06 1.31107e-06 0)
(-3.92527e-06 1.10192e-06 0)
(-2.11574e-06 9.20306e-07 0)
(-1.97357e-07 7.64672e-07 0)
(1.75546e-06 6.33603e-07 0)
(-1.4096e-05 8.86153e-06 0)
(-8.17102e-06 7.56195e-06 0)
(-7.78473e-06 6.41337e-06 0)
(-7.44552e-06 5.46126e-06 0)
(-6.561e-06 4.6433e-06 0)
(-5.21969e-06 3.92773e-06 0)
(-3.58805e-06 3.30108e-06 0)
(-1.7698e-06 2.75705e-06 0)
(1.51421e-07 2.29099e-06 0)
(2.10153e-06 1.89862e-06 0)
(-1.34195e-05 1.4801e-05 0)
(-7.72686e-06 1.25925e-05 0)
(-7.29582e-06 1.06651e-05 0)
(-6.89003e-06 9.07812e-06 0)
(-5.94996e-06 7.71817e-06 0)
(-4.56729e-06 6.52853e-06 0)
(-2.90682e-06 5.48669e-06 0)
(-1.07194e-06 4.58272e-06 0)
(8.5364e-07 3.80901e-06 0)
(2.79645e-06 3.15804e-06 0)
(-1.24262e-05 2.07689e-05 0)
(-7.05949e-06 1.75979e-05 0)
(-6.55132e-06 1.48776e-05 0)
(-6.04034e-06 1.26604e-05 0)
(-5.01593e-06 1.07649e-05 0)
(-3.5713e-06 9.10528e-06 0)
(-1.86798e-06 7.65173e-06 0)
(-9.56156e-09 6.39218e-06 0)
(1.91956e-06 5.31603e-06 0)
(3.84678e-06 4.41176e-06 0)
(-1.11987e-05 2.67696e-05 0)
(-6.18992e-06 2.25583e-05 0)
(-5.55023e-06 1.90318e-05 0)
(-4.8843e-06 1.62017e-05 0)
(-3.74329e-06 1.37819e-05 0)
(-2.21314e-06 1.16559e-05 0)
(-4.50428e-07 9.79428e-06 0)
(1.4386e-06 8.1858e-06 0)
(3.36747e-06 6.81607e-06 0)
(5.265e-06 5.66757e-06 0)
(-9.89661e-06 3.29886e-05 0)
(-5.13848e-06 2.75104e-05 0)
(-4.30592e-06 2.31142e-05 0)
(-3.42221e-06 1.96878e-05 0)
(-2.12377e-06 1.67509e-05 0)
(-4.72244e-07 1.41595e-05 0)
(1.37697e-06 1.18969e-05 0)
(3.30754e-06 9.95411e-06 0)
(5.22912e-06 8.30894e-06 0)
(7.07446e-06 6.93373e-06 0)
(-8.29809e-06 3.95846e-05 0)
(-3.92122e-06 3.24889e-05 0)
(-2.99201e-06 2.70234e-05 0)
(-1.77223e-06 2.2965e-05 0)
(-1.99303e-07 1.95046e-05 0)
(1.67177e-06 1.64647e-05 0)
(3.67141e-06 1.38399e-05 0)
(5.66686e-06 1.16114e-05 0)
(7.56958e-06 9.73838e-06 0)
(9.32632e-06 8.177e-06 0)
(-6.92257e-06 4.41534e-05 0)
(-3.53519e-06 3.66483e-05 0)
(-2.69292e-06 3.02986e-05 0)
(-4.88522e-07 2.5717e-05 0)
(1.89785e-06 2.17892e-05 0)
(4.30511e-06 1.83947e-05 0)
(6.60307e-06 1.55209e-05 0)
(8.69964e-06 1.31109e-05 0)
(1.05524e-05 1.10937e-05 0)
(1.21526e-05 9.40852e-06 0)
(-2.89667e-05 3.12054e-05 0)
(-9.77232e-06 3.79712e-05 0)
(-6.2676e-06 3.25817e-05 0)
(-4.19034e-07 2.86181e-05 0)
(4.31994e-06 2.45116e-05 0)
(7.92165e-06 2.09008e-05 0)
(1.07106e-05 1.78672e-05 0)
(1.28877e-05 1.53129e-05 0)
(1.45765e-05 1.31472e-05 0)
(1.58696e-05 1.13081e-05 0)
(-0.000207176 0.000226619 0)
(-1.03015e-05 6.53126e-05 0)
(-1.18385e-05 5.00651e-05 0)
(1.03737e-06 4.71759e-05 0)
(9.14821e-06 4.28459e-05 0)
(1.39196e-05 3.82536e-05 0)
(1.68483e-05 3.38823e-05 0)
(1.86974e-05 2.98465e-05 0)
(1.98362e-05 2.62087e-05 0)
(2.04763e-05 2.2993e-05 0)
)
;

boundaryField
{
    leftWall
    {
        type            noSlip;
    }
    rightWall
    {
        type            noSlip;
    }
    topWall
    {
        type            noSlip;
    }
    bottomWall
    {
        type            noSlip;
    }
    frontAndBackPlanes
    {
        type            empty;
    }
    procBoundary1to0
    {
        type            processor;
        value           nonuniform List<vector> 
20
(
(2.07473e-05 -2.01986e-05 0)
(1.68354e-05 -9.75225e-06 0)
(1.3507e-05 -8.00784e-06 0)
(1.09085e-05 -6.88866e-06 0)
(8.79776e-06 -5.80142e-06 0)
(7.07718e-06 -4.7223e-06 0)
(5.71368e-06 -3.6675e-06 0)
(4.69555e-06 -2.62224e-06 0)
(4.01806e-06 -1.57564e-06 0)
(3.67954e-06 -5.2569e-07 0)
(3.67954e-06 5.25734e-07 0)
(4.01806e-06 1.57569e-06 0)
(4.69554e-06 2.62228e-06 0)
(5.71367e-06 3.66754e-06 0)
(7.07717e-06 4.72233e-06 0)
(8.79776e-06 5.80145e-06 0)
(1.09085e-05 6.88869e-06 0)
(1.3507e-05 8.00787e-06 0)
(1.68354e-05 9.75227e-06 0)
(2.07473e-05 2.01986e-05 0)
)
;
    }
}


// ************************************************************************* //
