/*--------------------------------*- C++ -*----------------------------------*\
| =========                 |                                                 |
| \\      /  F ield         | OpenFOAM: The Open Source CFD Toolbox           |
|  \\    /   O peration     | Version:  2506                                  |
|   \\  /    A nd           | Website:  www.openfoam.com                      |
|    \\/     M anipulation  |                                                 |
\*---------------------------------------------------------------------------*/
FoamFile
{
    version     2.0;
    format      ascii;
    arch        "LSB;label=32;scalar=64";
    class       volScalarField;
    location    "2.37483013";
    object      alphat;
}
// * * * * * * * * * * * * * * * * * * * * * * * * * * * * * * * * * * * * * //

dimensions      [1 -1 -1 0 0 0 0];

internalField   nonuniform List<scalar> 
400
(
0.076682
0.138793
0.166137
0.18241
0.193534
0.201538
0.207335
0.2114
0.213994
0.215263
0.215268
0.214012
0.21143
0.207379
0.201597
0.193611
0.182508
0.166262
0.138949
0.0769021
0.13861
1.22028
1.74974
2.03618
2.21868
2.34385
2.43153
2.49157
2.5293
2.54757
2.54765
2.52953
2.49197
2.4321
2.34462
2.21964
2.03737
1.75117
1.22182
0.138954
0.165865
1.74886
2.85306
3.52212
3.95934
4.25918
4.46793
4.61
4.69886
4.74177
4.74194
4.69938
4.61088
4.46917
4.2608
3.96134
3.52448
2.85566
1.75121
0.166269
0.182085
2.03469
3.52121
4.49833
5.16246
5.6258
5.95049
6.17189
6.31038
6.37723
6.37748
6.31114
6.17317
5.95228
5.6281
5.16525
4.50152
3.52454
2.03744
0.182518
0.19317
2.21674
3.95766
5.16158
6.00593
6.6057
7.03007
7.32087
7.50318
7.59126
7.59157
7.50413
7.32245
7.03229
6.60851
6.00929
5.16532
3.96145
2.21974
0.193622
0.201146
2.34159
4.25689
5.62414
6.60486
7.31192
7.81685
8.16472
8.38347
8.4893
8.48967
8.38457
8.16654
7.81937
7.31511
6.60861
5.62826
4.26097
2.34473
0.20161
0.206921
2.42901
4.46515
5.94819
7.0285
7.81608
8.38276
8.77506
9.02246
9.14233
9.14273
9.02366
8.77705
8.38551
7.81952
7.03252
5.95255
4.46942
2.43225
0.207394
0.210968
2.48885
4.60683
6.16905
7.31867
8.16327
8.77436
9.19899
9.4674
9.5976
9.59803
9.46867
9.2011
8.77726
8.16689
7.32287
6.17358
4.61122
2.49216
0.211447
0.21355
2.52642
4.69537
6.3071
7.50046
8.38144
9.02115
9.46678
9.74891
9.88589
9.88633
9.75023
9.46896
9.02414
8.38516
7.50476
6.31173
4.69984
2.52977
0.214033
0.214809
2.54458
4.73804
6.37361
7.58811
8.4868
9.14051
9.59645
9.88535
10.0257
10.0261
9.88669
9.59867
9.14354
8.49057
7.59247
6.37828
4.74254
2.54795
0.215294
0.214809
2.54458
4.73804
6.37361
7.58811
8.4868
9.14051
9.59645
9.88535
10.0257
10.0261
9.88669
9.59867
9.14354
8.49057
7.59247
6.37828
4.74254
2.54795
0.215294
0.21355
2.52642
4.69537
6.3071
7.50046
8.38144
9.02115
9.46678
9.74891
9.88589
9.88633
9.75023
9.46896
9.02414
8.38516
7.50476
6.31173
4.69984
2.52977
0.214033
0.210968
2.48885
4.60683
6.16905
7.31867
8.16327
8.77436
9.19899
9.4674
9.5976
9.59803
9.46868
9.2011
8.77726
8.16689
7.32287
6.17358
4.61122
2.49216
0.211447
0.206921
2.42901
4.46515
5.94818
7.0285
7.81608
8.38276
8.77506
9.02246
9.14233
9.14273
9.02366
8.77705
8.38551
7.81952
7.03253
5.95255
4.46942
2.43225
0.207394
0.201146
2.34159
4.25689
5.62414
6.60486
7.31192
7.81685
8.16472
8.38347
8.4893
8.48967
8.38457
8.16654
7.81937
7.31511
6.60862
5.62826
4.26097
2.34473
0.20161
0.19317
2.21674
3.95766
5.16158
6.00593
6.6057
7.03007
7.32087
7.50318
7.59126
7.59158
7.50413
7.32245
7.03229
6.60851
6.00929
5.16532
3.96145
2.21974
0.193622
0.182085
2.03469
3.52121
4.49833
5.16246
5.6258
5.95049
6.1719
6.31038
6.37723
6.37749
6.31115
6.17317
5.95228
5.6281
5.16525
4.50152
3.52454
2.03744
0.182518
0.165865
1.74886
2.85306
3.52212
3.95934
4.25918
4.46793
4.61
4.69886
4.74177
4.74195
4.69938
4.61088
4.46917
4.2608
3.96134
3.52448
2.85566
1.75121
0.166269
0.13861
1.22028
1.74974
2.03618
2.21868
2.34385
2.43153
2.49157
2.5293
2.54757
2.54765
2.52954
2.49197
2.4321
2.34462
2.21965
2.03737
1.75117
1.22182
0.138954
0.076682
0.138793
0.166137
0.18241
0.193534
0.201538
0.207335
0.2114
0.213994
0.215263
0.215268
0.214012
0.21143
0.207379
0.201597
0.193611
0.182508
0.166262
0.138949
0.0769021
)
;

boundaryField
{
    leftWall
    {
        type            compressible::alphatWallFunction;
        value           nonuniform List<scalar> 
20
(
0.014755
0.0244074
0.0284856
0.0308475
0.0324255
0.0335377
0.0343285
0.0348743
0.0352185
0.0353852
0.0353852
0.0352185
0.0348743
0.0343285
0.0335377
0.0324255
0.0308475
0.0284856
0.0244074
0.014755
)
;
    }
    rightWall
    {
        type            compressible::alphatWallFunction;
        value           nonuniform List<scalar> 
20
(
0.0172028
0.0291019
0.0341035
0.0369925
0.0389201
0.0402776
0.0412423
0.0419078
0.0423274
0.0425305
0.0425305
0.0423274
0.0419078
0.0412423
0.0402776
0.0389201
0.0369925
0.0341035
0.0291019
0.0172028
)
;
    }
    topWall
    {
        type            compressible::alphatWallFunction;
        value           nonuniform List<scalar> 
20
(
0.0172211
0.0291119
0.0341083
0.0369956
0.038922
0.0402786
0.0412426
0.0419076
0.0423268
0.0425297
0.0425295
0.0423262
0.0419066
0.041241
0.0402764
0.0389189
0.0369914
0.0341025
0.0291013
0.0172028
)
;
    }
    bottomWall
    {
        type            compressible::alphatWallFunction;
        value           nonuniform List<scalar> 
20
(
0.0172211
0.0291119
0.0341083
0.0369956
0.038922
0.0402786
0.0412426
0.0419076
0.0423268
0.0425297
0.0425295
0.0423262
0.0419066
0.041241
0.0402764
0.0389189
0.0369914
0.0341025
0.0291013
0.0172028
)
;
    }
    frontAndBackPlanes
    {
        type            empty;
    }
}


// ************************************************************************* //
