/*--------------------------------*- C++ -*----------------------------------*\
| =========                 |                                                 |
| \\      /  F ield         | OpenFOAM: The Open Source CFD Toolbox           |
|  \\    /   O peration     | Version:  2506                                  |
|   \\  /    A nd           | Website:  www.openfoam.com                      |
|    \\/     M anipulation  |                                                 |
\*---------------------------------------------------------------------------*/
FoamFile
{
    version     2.0;
    format      ascii;
    arch        "LSB;label=32;scalar=64";
    class       volScalarField;
    location    "2.37483013";
    object      epsilon;
}
// * * * * * * * * * * * * * * * * * * * * * * * * * * * * * * * * * * * * * //

dimensions      [0 2 -3 0 0 0 0];

internalField   nonuniform List<scalar> 
400
(
0.00409358
0.0206758
0.034091
0.0440798
0.0517385
0.0576259
0.0620587
0.0652367
0.0672896
0.0682968
0.068296
0.0672873
0.0652325
0.0620523
0.0576169
0.0517266
0.0440648
0.0340732
0.020652
0.00407951
0.0206896
0.0166502
0.0199232
0.0232512
0.0260793
0.0283551
0.0301106
0.0313871
0.0322187
0.0326285
0.0326284
0.0322182
0.0313861
0.030109
0.0283525
0.0260755
0.0232458
0.0199153
0.0166378
0.0206531
0.034114
0.019927
0.0201029
0.0216098
0.0232186
0.0246422
0.0257973
0.0266624
0.0272358
0.0275211
0.027521
0.0272355
0.0266617
0.0257961
0.0246402
0.0232155
0.0216053
0.0200961
0.0199156
0.0340757
0.0441108
0.0232579
0.0216121
0.0220939
0.0230255
0.0239838
0.0248182
0.0254684
0.0259093
0.0261314
0.0261313
0.025909
0.0254677
0.0248171
0.0239819
0.0230227
0.0220896
0.0216054
0.0232464
0.0440686
0.0517777
0.0260883
0.0232225
0.0230271
0.0235051
0.0241474
0.0247624
0.0252653
0.0256156
0.0257945
0.0257944
0.0256153
0.0252646
0.0247612
0.0241455
0.0235023
0.0230228
0.0232158
0.0260763
0.0517312
0.0576723
0.0283661
0.0246474
0.0239865
0.0241484
0.0245658
0.0250219
0.0254167
0.0257
0.0258469
0.0258468
0.0256996
0.0254159
0.0250207
0.0245639
0.0241456
0.0239822
0.0246406
0.0283536
0.0576221
0.0621111
0.0301231
0.0258035
0.0248217
0.0247643
0.0250227
0.0253643
0.02568
0.0259138
0.0260369
0.0260368
0.0259135
0.0256793
0.025363
0.0250208
0.0247614
0.0248174
0.0257967
0.0301102
0.0620577
0.0652937
0.0314008
0.0266693
0.0254724
0.0252677
0.025418
0.0256806
0.025941
0.0261398
0.0262459
0.0262458
0.0261394
0.0259403
0.0256793
0.0254161
0.0252648
0.0254681
0.0266624
0.0313875
0.0652379
0.0673499
0.0322331
0.0272431
0.0259138
0.0256184
0.0257017
0.0259148
0.0261402
0.0263167
0.0264119
0.0264118
0.0263163
0.0261395
0.0259135
0.0256998
0.0256155
0.0259094
0.0272362
0.0322196
0.0672926
0.068359
0.0326434
0.0275287
0.026136
0.0257975
0.0258488
0.026038
0.0262465
0.0264122
0.0265021
0.026502
0.0264118
0.0262458
0.0260368
0.0258469
0.0257947
0.0261317
0.0275217
0.0326298
0.0683009
0.068359
0.0326434
0.0275287
0.026136
0.0257975
0.0258488
0.026038
0.0262465
0.0264122
0.0265021
0.026502
0.0264118
0.0262458
0.0260368
0.0258469
0.0257947
0.0261317
0.0275217
0.0326298
0.0683009
0.0673499
0.0322331
0.0272431
0.0259138
0.0256184
0.0257017
0.0259148
0.0261402
0.0263167
0.0264119
0.0264118
0.0263163
0.0261395
0.0259135
0.0256998
0.0256155
0.0259094
0.0272362
0.0322196
0.0672926
0.0652937
0.0314008
0.0266693
0.0254724
0.0252677
0.025418
0.0256806
0.025941
0.0261398
0.0262459
0.0262458
0.0261394
0.0259403
0.0256793
0.0254161
0.0252648
0.0254681
0.0266624
0.0313875
0.0652379
0.0621111
0.0301231
0.0258035
0.0248217
0.0247643
0.0250227
0.0253643
0.02568
0.0259138
0.0260369
0.0260368
0.0259134
0.0256793
0.025363
0.0250208
0.0247614
0.0248174
0.0257967
0.0301102
0.0620577
0.0576723
0.0283661
0.0246474
0.0239865
0.0241484
0.0245658
0.0250219
0.0254167
0.0257
0.0258469
0.0258468
0.0256996
0.0254159
0.0250207
0.0245639
0.0241456
0.0239822
0.0246406
0.0283536
0.0576221
0.0517777
0.0260883
0.0232225
0.0230271
0.0235051
0.0241474
0.0247624
0.0252653
0.0256156
0.0257945
0.0257944
0.0256152
0.0252646
0.0247612
0.0241455
0.0235023
0.0230228
0.0232158
0.0260763
0.0517312
0.0441108
0.0232579
0.0216121
0.0220939
0.0230255
0.0239838
0.0248182
0.0254684
0.0259093
0.0261314
0.0261313
0.025909
0.0254677
0.0248171
0.0239819
0.0230227
0.0220896
0.0216054
0.0232464
0.0440686
0.034114
0.019927
0.0201029
0.0216098
0.0232186
0.0246422
0.0257973
0.0266624
0.0272358
0.0275211
0.027521
0.0272355
0.0266617
0.0257961
0.0246402
0.0232155
0.0216053
0.0200961
0.0199156
0.0340758
0.0206896
0.0166502
0.0199232
0.0232512
0.0260793
0.0283551
0.0301106
0.0313871
0.0322187
0.0326285
0.0326284
0.0322182
0.0313861
0.030109
0.0283525
0.0260755
0.0232458
0.0199153
0.0166379
0.0206531
0.00409358
0.0206758
0.034091
0.0440798
0.0517385
0.0576259
0.0620587
0.0652367
0.0672896
0.0682968
0.068296
0.0672873
0.0652325
0.0620523
0.0576169
0.0517266
0.0440648
0.0340732
0.020652
0.00407951
)
;

boundaryField
{
    leftWall
    {
        type            epsilonWallFunction;
        blending        stepwise;
        value           nonuniform List<scalar> 
20
(
0.00409358
0.0206896
0.034114
0.0441108
0.0517777
0.0576723
0.0621111
0.0652937
0.0673499
0.068359
0.068359
0.0673499
0.0652937
0.0621111
0.0576723
0.0517777
0.0441108
0.034114
0.0206896
0.00409358
)
;
    }
    rightWall
    {
        type            epsilonWallFunction;
        blending        stepwise;
        value           nonuniform List<scalar> 
20
(
0.00407951
0.0206531
0.0340757
0.0440686
0.0517312
0.0576221
0.0620577
0.0652379
0.0672926
0.0683009
0.0683009
0.0672926
0.0652379
0.0620577
0.0576221
0.0517312
0.0440686
0.0340758
0.0206531
0.00407951
)
;
    }
    topWall
    {
        type            epsilonWallFunction;
        blending        stepwise;
        value           nonuniform List<scalar> 
20
(
0.00409358
0.0206758
0.034091
0.0440798
0.0517385
0.0576259
0.0620587
0.0652367
0.0672896
0.0682968
0.068296
0.0672873
0.0652325
0.0620523
0.0576169
0.0517266
0.0440648
0.0340732
0.020652
0.00407951
)
;
    }
    bottomWall
    {
        type            epsilonWallFunction;
        blending        stepwise;
        value           nonuniform List<scalar> 
20
(
0.00409358
0.0206758
0.034091
0.0440798
0.0517385
0.0576259
0.0620587
0.0652367
0.0672896
0.0682968
0.068296
0.0672873
0.0652325
0.0620523
0.0576169
0.0517266
0.0440648
0.0340732
0.020652
0.00407951
)
;
    }
    frontAndBackPlanes
    {
        type            empty;
    }
}


// ************************************************************************* //
