/*--------------------------------*- C++ -*----------------------------------*\
| =========                 |                                                 |
| \\      /  F ield         | OpenFOAM: The Open Source CFD Toolbox           |
|  \\    /   O peration     | Version:  2506                                  |
|   \\  /    A nd           | Website:  www.openfoam.com                      |
|    \\/     M anipulation  |                                                 |
\*---------------------------------------------------------------------------*/
FoamFile
{
    version     2.0;
    format      ascii;
    arch        "LSB;label=32;scalar=64";
    class       volScalarField;
    location    "2.37483013";
    object      k;
}
// * * * * * * * * * * * * * * * * * * * * * * * * * * * * * * * * * * * * * //

dimensions      [0 2 -2 0 0 0 0];

internalField   nonuniform List<scalar> 
400
(
0.00186989
0.00564718
0.00793138
0.00944891
0.0105436
0.0113544
0.0119507
0.0123719
0.0126416
0.0127733
0.0127732
0.0126412
0.0123713
0.0119497
0.011353
0.0105417
0.00944661
0.00792848
0.0056428
0.00186577
0.0056497
0.0150272
0.0196787
0.0229297
0.0253467
0.0271629
0.0285083
0.0294623
0.0300742
0.0303732
0.0303729
0.0300734
0.0294609
0.0285062
0.0271599
0.0253426
0.0229244
0.0196719
0.015019
0.00564305
0.00793489
0.0196803
0.0252419
0.029074
0.0319496
0.0341356
0.0357702
0.0369371
0.0376889
0.0380573
0.038057
0.0376881
0.0369356
0.035768
0.0341325
0.0319453
0.0290684
0.0252348
0.0196723
0.00792895
0.00945332
0.0229331
0.0290758
0.0332235
0.0363308
0.0387046
0.0404901
0.0417713
0.0425998
0.0430067
0.0430064
0.0425989
0.0417697
0.0404878
0.0387013
0.0363263
0.0332176
0.0290687
0.022925
0.00944724
0.0105489
0.0253516
0.0319531
0.0363325
0.0395929
0.0420833
0.0439611
0.0453122
0.0461882
0.046619
0.0466187
0.0461872
0.0453105
0.0439585
0.0420798
0.0395882
0.0363265
0.0319458
0.0253434
0.0105425
0.0113605
0.0271692
0.0341405
0.0387077
0.0420848
0.0446581
0.0465984
0.047996
0.0489032
0.0493498
0.0493495
0.0489022
0.0479943
0.0465958
0.0446545
0.04208
0.0387016
0.0341331
0.0271608
0.0113538
0.0119575
0.0285158
0.0357763
0.0404945
0.0439637
0.0465996
0.048585
0.050015
0.0509436
0.0514009
0.0514005
0.0509426
0.0500132
0.0485823
0.0465959
0.0439588
0.0404882
0.0357687
0.0285072
0.0119505
0.0123793
0.0294706
0.0369441
0.0417765
0.0453159
0.0479982
0.050016
0.0514687
0.0524119
0.0528764
0.052876
0.0524108
0.0514668
0.0500132
0.0479944
0.0453108
0.0417702
0.0369363
0.0294619
0.0123721
0.0126493
0.0300832
0.0376966
0.0426058
0.0461926
0.0489062
0.0509453
0.0524127
0.0533652
0.0538342
0.0538338
0.0533641
0.0524107
0.0509425
0.0489023
0.0461875
0.0425994
0.0376888
0.0300743
0.012642
0.0127813
0.0303826
0.0380654
0.0430132
0.0466239
0.0493533
0.0514032
0.0528777
0.0538348
0.054306
0.0543057
0.0538336
0.0528758
0.0514003
0.0493494
0.0466188
0.0430067
0.0380575
0.0303737
0.0127738
0.0127813
0.0303826
0.0380654
0.0430132
0.0466239
0.0493533
0.0514032
0.0528777
0.0538348
0.054306
0.0543057
0.0538336
0.0528758
0.0514003
0.0493494
0.0466188
0.0430067
0.0380575
0.0303737
0.0127738
0.0126493
0.0300832
0.0376966
0.0426058
0.0461926
0.0489062
0.0509453
0.0524127
0.0533652
0.0538342
0.0538338
0.0533641
0.0524107
0.0509425
0.0489023
0.0461875
0.0425994
0.0376888
0.0300743
0.012642
0.0123793
0.0294706
0.0369441
0.0417765
0.0453159
0.0479982
0.050016
0.0514687
0.0524119
0.0528764
0.052876
0.0524108
0.0514668
0.0500132
0.0479944
0.0453108
0.0417702
0.0369363
0.0294619
0.0123721
0.0119575
0.0285158
0.0357763
0.0404945
0.0439637
0.0465996
0.048585
0.050015
0.0509436
0.0514009
0.0514005
0.0509426
0.0500132
0.0485823
0.0465959
0.0439588
0.0404882
0.0357687
0.0285072
0.0119505
0.0113605
0.0271692
0.0341405
0.0387077
0.0420848
0.0446581
0.0465984
0.047996
0.0489032
0.0493498
0.0493495
0.0489022
0.0479943
0.0465958
0.0446545
0.04208
0.0387016
0.0341331
0.0271608
0.0113538
0.0105489
0.0253516
0.0319531
0.0363325
0.0395929
0.0420833
0.043961
0.0453122
0.0461882
0.046619
0.0466187
0.0461872
0.0453105
0.0439586
0.0420798
0.0395882
0.0363265
0.0319458
0.0253434
0.0105425
0.00945332
0.0229331
0.0290758
0.0332235
0.0363308
0.0387046
0.0404901
0.0417713
0.0425998
0.0430067
0.0430064
0.0425989
0.0417697
0.0404878
0.0387013
0.0363263
0.0332176
0.0290687
0.022925
0.00944724
0.00793489
0.0196803
0.0252419
0.029074
0.0319496
0.0341356
0.0357702
0.0369371
0.0376889
0.0380573
0.038057
0.0376881
0.0369356
0.035768
0.0341325
0.0319453
0.0290684
0.0252348
0.0196723
0.00792895
0.0056497
0.0150272
0.0196787
0.0229297
0.0253467
0.0271629
0.0285083
0.0294623
0.0300742
0.0303732
0.0303729
0.0300734
0.0294609
0.0285063
0.0271599
0.0253426
0.0229244
0.0196719
0.015019
0.00564305
0.00186989
0.00564718
0.00793138
0.00944891
0.0105436
0.0113544
0.0119507
0.0123719
0.0126416
0.0127733
0.0127732
0.0126412
0.0123713
0.0119497
0.011353
0.0105417
0.00944661
0.00792848
0.0056428
0.00186577
)
;

boundaryField
{
    leftWall
    {
        type            kqRWallFunction;
        value           nonuniform List<scalar> 
20
(
0.00186989
0.0056497
0.00793489
0.00945332
0.0105489
0.0113605
0.0119575
0.0123793
0.0126493
0.0127813
0.0127813
0.0126493
0.0123793
0.0119575
0.0113605
0.0105489
0.00945332
0.00793489
0.0056497
0.00186989
)
;
    }
    rightWall
    {
        type            kqRWallFunction;
        value           nonuniform List<scalar> 
20
(
0.00186577
0.00564305
0.00792895
0.00944724
0.0105425
0.0113538
0.0119505
0.0123721
0.012642
0.0127738
0.0127738
0.012642
0.0123721
0.0119505
0.0113538
0.0105425
0.00944724
0.00792895
0.00564305
0.00186577
)
;
    }
    topWall
    {
        type            kqRWallFunction;
        value           nonuniform List<scalar> 
20
(
0.00186989
0.00564718
0.00793138
0.00944891
0.0105436
0.0113544
0.0119507
0.0123719
0.0126416
0.0127733
0.0127732
0.0126412
0.0123713
0.0119497
0.011353
0.0105417
0.00944661
0.00792848
0.0056428
0.00186577
)
;
    }
    bottomWall
    {
        type            kqRWallFunction;
        value           nonuniform List<scalar> 
20
(
0.00186989
0.00564718
0.00793138
0.00944891
0.0105436
0.0113544
0.0119507
0.0123719
0.0126416
0.0127733
0.0127732
0.0126412
0.0123713
0.0119497
0.011353
0.0105417
0.00944661
0.00792848
0.0056428
0.00186577
)
;
    }
    frontAndBackPlanes
    {
        type            empty;
    }
}


// ************************************************************************* //
