/*--------------------------------*- C++ -*----------------------------------*\
| =========                 |                                                 |
| \\      /  F ield         | OpenFOAM: The Open Source CFD Toolbox           |
|  \\    /   O peration     | Version:  2506                                  |
|   \\  /    A nd           | Website:  www.openfoam.com                      |
|    \\/     M anipulation  |                                                 |
\*---------------------------------------------------------------------------*/
FoamFile
{
    version     2.0;
    format      ascii;
    arch        "LSB;label=32;scalar=64";
    class       volScalarField;
    location    "2.37483013";
    object      nut;
}
// * * * * * * * * * * * * * * * * * * * * * * * * * * * * * * * * * * * * * //

dimensions      [0 2 -1 0 0 0 0];

internalField   nonuniform List<scalar> 
400
(
7.68724e-05
0.000138817
0.000166073
0.000182292
0.000193376
0.00020135
0.000207122
0.000211167
0.000213747
0.000215005
0.000215003
0.000213742
0.000211158
0.000207109
0.000201332
0.000193354
0.000182264
0.000166039
0.000138761
7.67978e-05
0.000138848
0.00122061
0.00174935
0.00203514
0.00221712
0.00234188
0.00242922
0.002489
0.00252652
0.00254464
0.00254461
0.00252643
0.00248884
0.00242899
0.00234158
0.00221674
0.00203468
0.00174884
0.00122018
0.000138766
0.000166109
0.0017493
0.00285251
0.00352048
0.00395674
0.00425578
0.00446387
0.00460541
0.00469385
0.00473644
0.00473639
0.0046937
0.00460517
0.00446352
0.00425533
0.00395619
0.00351986
0.00285188
0.00174887
0.000166046
0.000182333
0.00203515
0.00352055
0.00449634
0.00515922
0.00562147
0.00594525
0.0061659
0.0063038
0.00637019
0.00637014
0.00630362
0.0061656
0.00594483
0.00562093
0.00515858
0.00449565
0.0035199
0.00203473
0.000182273
0.000193425
0.00221722
0.00395693
0.00515935
0.00600226
0.00660075
0.00702402
0.0073139
0.00749548
0.00758301
0.00758294
0.00749528
0.00731357
0.00702355
0.00660016
0.00600157
0.00515862
0.00395626
0.0022168
0.000193364
0.000201405
0.00234206
0.00425611
0.00562176
0.00660091
0.00730654
0.00781024
0.00815707
0.00837499
0.00848019
0.00848011
0.00837477
0.00815671
0.00780973
0.00730591
0.00660018
0.00562099
0.00425541
0.00234164
0.000201342
0.000207183
0.00242948
0.00446432
0.00594569
0.00702435
0.00781041
0.00837576
0.00876694
0.00901343
0.0091326
0.00913252
0.0090132
0.00876655
0.00837522
0.00780974
0.00702359
0.00594489
0.0044636
0.00242906
0.000207119
0.000211233
0.00248932
0.00460597
0.00616648
0.00731439
0.0081574
0.0087671
0.00919055
0.009458
0.00958747
0.00958739
0.00945775
0.00919015
0.00876654
0.00815671
0.00731359
0.00616565
0.00460523
0.00248889
0.000211167
0.000213817
0.0025269
0.0046945
0.00630449
0.00749609
0.00837545
0.00901373
0.00945814
0.00973927
0.00987549
0.00987541
0.00973902
0.00945772
0.00901315
0.00837474
0.00749527
0.00630364
0.00469375
0.00252646
0.00021375
0.000215077
0.00254506
0.00473716
0.00637097
0.00758371
0.00848076
0.00913301
0.00958772
0.00987561
0.0100152
0.0100151
0.00987535
0.0095873
0.00913243
0.00848003
0.00758288
0.00637011
0.0047364
0.00254462
0.000215009
0.000215077
0.00254506
0.00473716
0.00637097
0.00758371
0.00848075
0.00913301
0.00958772
0.00987561
0.0100152
0.0100151
0.00987535
0.0095873
0.00913243
0.00848003
0.00758288
0.00637011
0.0047364
0.00254462
0.000215009
0.000213817
0.0025269
0.0046945
0.00630449
0.00749609
0.00837545
0.00901373
0.00945814
0.00973927
0.00987549
0.00987541
0.00973902
0.00945772
0.00901316
0.00837474
0.00749528
0.00630364
0.00469375
0.00252646
0.00021375
0.000211233
0.00248932
0.00460597
0.00616648
0.00731439
0.0081574
0.0087671
0.00919055
0.009458
0.00958747
0.00958739
0.00945775
0.00919015
0.00876655
0.00815671
0.00731359
0.00616565
0.00460523
0.00248889
0.000211167
0.000207183
0.00242948
0.00446432
0.00594569
0.00702435
0.00781041
0.00837576
0.00876694
0.00901343
0.0091326
0.00913253
0.0090132
0.00876656
0.00837523
0.00780974
0.00702359
0.00594489
0.0044636
0.00242906
0.000207119
0.000201405
0.00234206
0.00425611
0.00562176
0.00660091
0.00730654
0.00781024
0.00815707
0.00837499
0.00848019
0.00848012
0.00837477
0.00815671
0.00780973
0.00730591
0.00660018
0.00562099
0.00425541
0.00234164
0.000201342
0.000193425
0.00221722
0.00395693
0.00515935
0.00600226
0.00660075
0.00702402
0.0073139
0.00749548
0.00758301
0.00758294
0.00749528
0.00731357
0.00702356
0.00660016
0.00600158
0.00515862
0.00395626
0.0022168
0.000193364
0.000182333
0.00203515
0.00352055
0.00449634
0.00515922
0.00562147
0.00594525
0.0061659
0.0063038
0.00637019
0.00637014
0.00630362
0.00616561
0.00594483
0.00562093
0.00515858
0.00449565
0.0035199
0.00203473
0.000182273
0.000166109
0.0017493
0.00285251
0.00352048
0.00395674
0.00425578
0.00446387
0.00460541
0.00469385
0.00473644
0.00473639
0.00469371
0.00460517
0.00446352
0.00425533
0.00395619
0.00351986
0.00285188
0.00174887
0.000166046
0.000138848
0.00122061
0.00174935
0.00203514
0.00221712
0.00234188
0.00242922
0.002489
0.00252652
0.00254464
0.00254461
0.00252643
0.00248884
0.00242899
0.00234158
0.00221674
0.00203468
0.00174884
0.00122018
0.000138766
7.68724e-05
0.000138817
0.000166073
0.000182292
0.000193376
0.00020135
0.000207122
0.000211167
0.000213747
0.000215005
0.000215003
0.000213742
0.000211158
0.000207109
0.000201332
0.000193354
0.000182264
0.000166039
0.000138761
7.67978e-05
)
;

boundaryField
{
    leftWall
    {
        type            nutkWallFunction;
        blending        stepwise;
        value           nonuniform List<scalar> 
20
(
1.28833e-05
2.13112e-05
2.48721e-05
2.69343e-05
2.83121e-05
2.92833e-05
2.99738e-05
3.04503e-05
3.07509e-05
3.08964e-05
3.08964e-05
3.07509e-05
3.04503e-05
2.99738e-05
2.92833e-05
2.83121e-05
2.69343e-05
2.48721e-05
2.13112e-05
1.28833e-05
)
;
    }
    rightWall
    {
        type            nutkWallFunction;
        blending        stepwise;
        value           nonuniform List<scalar> 
20
(
1.46025e-05
2.4703e-05
2.89486e-05
3.1401e-05
3.30372e-05
3.41895e-05
3.50083e-05
3.55732e-05
3.59294e-05
3.61018e-05
3.61018e-05
3.59294e-05
3.55732e-05
3.50083e-05
3.41895e-05
3.30372e-05
3.1401e-05
2.89486e-05
2.4703e-05
1.46025e-05
)
;
    }
    topWall
    {
        type            nutkWallFunction;
        blending        stepwise;
        value           nonuniform List<scalar> 
20
(
1.46181e-05
2.47115e-05
2.89527e-05
3.14035e-05
3.30387e-05
3.41903e-05
3.50086e-05
3.55731e-05
3.59289e-05
3.61011e-05
3.6101e-05
3.59284e-05
3.55722e-05
3.50072e-05
3.41884e-05
3.30361e-05
3.14e-05
2.89478e-05
2.47025e-05
1.46025e-05
)
;
    }
    bottomWall
    {
        type            nutkWallFunction;
        blending        stepwise;
        value           nonuniform List<scalar> 
20
(
1.46181e-05
2.47115e-05
2.89527e-05
3.14035e-05
3.30387e-05
3.41903e-05
3.50086e-05
3.55731e-05
3.59289e-05
3.61011e-05
3.6101e-05
3.59284e-05
3.55722e-05
3.50072e-05
3.41884e-05
3.30361e-05
3.14e-05
2.89478e-05
2.47025e-05
1.46025e-05
)
;
    }
    frontAndBackPlanes
    {
        type            empty;
    }
}


// ************************************************************************* //
