/*--------------------------------*- C++ -*----------------------------------*\
| =========                 |                                                 |
| \\      /  F ield         | OpenFOAM: The Open Source CFD Toolbox           |
|  \\    /   O peration     | Version:  2506                                  |
|   \\  /    A nd           | Website:  www.openfoam.com                      |
|    \\/     M anipulation  |                                                 |
\*---------------------------------------------------------------------------*/
FoamFile
{
    version     2.0;
    format      ascii;
    arch        "LSB;label=32;scalar=64";
    class       volScalarField;
    location    "2.37483013";
    object      rho;
}
// * * * * * * * * * * * * * * * * * * * * * * * * * * * * * * * * * * * * * //

dimensions      [1 -3 0 0 0 0 0];

internalField   nonuniform List<scalar> 
400
(
997.523
999.823
1000.38
1000.65
1000.82
1000.94
1001.03
1001.1
1001.16
1001.2
1001.23
1001.26
1001.28
1001.3
1001.32
1001.33
1001.34
1001.34
1001.35
1001.36
998.28
999.723
1000.22
1000.51
1000.7
1000.84
1000.95
1001.03
1001.1
1001.15
1001.2
1001.23
1001.26
1001.28
1001.3
1001.31
1001.32
1001.33
1001.34
1001.35
998.536
999.747
1000.19
1000.46
1000.66
1000.8
1000.91
1001
1001.07
1001.13
1001.17
1001.21
1001.24
1001.27
1001.29
1001.3
1001.31
1001.33
1001.33
1001.35
998.635
999.771
1000.19
1000.44
1000.63
1000.77
1000.88
1000.97
1001.05
1001.1
1001.15
1001.19
1001.23
1001.25
1001.27
1001.29
1001.31
1001.32
1001.33
1001.34
998.685
999.787
1000.19
1000.43
1000.61
1000.75
1000.86
1000.95
1001.03
1001.09
1001.14
1001.18
1001.21
1001.24
1001.27
1001.28
1001.3
1001.31
1001.32
1001.34
998.714
999.797
1000.19
1000.42
1000.6
1000.74
1000.85
1000.94
1001.01
1001.08
1001.13
1001.17
1001.21
1001.23
1001.26
1001.28
1001.29
1001.31
1001.32
1001.33
998.733
999.804
1000.19
1000.42
1000.59
1000.73
1000.84
1000.93
1001
1001.06
1001.12
1001.16
1001.2
1001.23
1001.25
1001.27
1001.29
1001.3
1001.32
1001.33
998.745
999.808
1000.19
1000.42
1000.59
1000.72
1000.83
1000.92
1000.99
1001.06
1001.11
1001.15
1001.19
1001.22
1001.25
1001.27
1001.29
1001.3
1001.31
1001.33
998.752
999.811
1000.19
1000.41
1000.58
1000.71
1000.82
1000.91
1000.99
1001.05
1001.11
1001.15
1001.19
1001.22
1001.24
1001.27
1001.28
1001.3
1001.31
1001.33
998.755
999.812
1000.19
1000.41
1000.58
1000.71
1000.82
1000.91
1000.99
1001.05
1001.1
1001.15
1001.19
1001.22
1001.24
1001.26
1001.28
1001.3
1001.31
1001.32
998.755
999.812
1000.19
1000.41
1000.58
1000.71
1000.82
1000.91
1000.99
1001.05
1001.1
1001.15
1001.19
1001.22
1001.24
1001.26
1001.28
1001.3
1001.31
1001.32
998.752
999.811
1000.19
1000.41
1000.58
1000.71
1000.82
1000.91
1000.99
1001.05
1001.11
1001.15
1001.19
1001.22
1001.24
1001.27
1001.28
1001.3
1001.31
1001.33
998.745
999.808
1000.19
1000.42
1000.59
1000.72
1000.83
1000.92
1000.99
1001.06
1001.11
1001.15
1001.19
1001.22
1001.25
1001.27
1001.29
1001.3
1001.31
1001.33
998.733
999.804
1000.19
1000.42
1000.59
1000.73
1000.84
1000.93
1001
1001.06
1001.12
1001.16
1001.2
1001.23
1001.25
1001.27
1001.29
1001.3
1001.32
1001.33
998.714
999.797
1000.19
1000.42
1000.6
1000.74
1000.85
1000.94
1001.01
1001.08
1001.13
1001.17
1001.21
1001.23
1001.26
1001.28
1001.29
1001.31
1001.32
1001.33
998.685
999.787
1000.19
1000.43
1000.61
1000.75
1000.86
1000.95
1001.03
1001.09
1001.14
1001.18
1001.21
1001.24
1001.27
1001.28
1001.3
1001.31
1001.32
1001.34
998.635
999.771
1000.19
1000.44
1000.63
1000.77
1000.88
1000.97
1001.05
1001.1
1001.15
1001.19
1001.23
1001.25
1001.27
1001.29
1001.31
1001.32
1001.33
1001.34
998.536
999.747
1000.19
1000.46
1000.66
1000.8
1000.91
1001
1001.07
1001.13
1001.17
1001.21
1001.24
1001.27
1001.29
1001.3
1001.31
1001.33
1001.33
1001.35
998.28
999.723
1000.22
1000.51
1000.7
1000.84
1000.95
1001.03
1001.1
1001.15
1001.2
1001.23
1001.26
1001.28
1001.3
1001.31
1001.32
1001.33
1001.34
1001.35
997.523
999.823
1000.38
1000.65
1000.82
1000.94
1001.03
1001.1
1001.16
1001.2
1001.23
1001.26
1001.28
1001.3
1001.32
1001.33
1001.34
1001.34
1001.35
1001.36
)
;

boundaryField
{
    leftWall
    {
        type            calculated;
        value           uniform 973.493;
    }
    rightWall
    {
        type            calculated;
        value           uniform 1001.36;
    }
    topWall
    {
        type            calculated;
        value           uniform 1001.36;
    }
    bottomWall
    {
        type            calculated;
        value           uniform 1001.36;
    }
    frontAndBackPlanes
    {
        type            empty;
    }
}


// ************************************************************************* //
