/*--------------------------------*- C++ -*----------------------------------*\
| =========                 |                                                 |
| \\      /  F ield         | OpenFOAM: The Open Source CFD Toolbox           |
|  \\    /   O peration     | Version:  2506                                  |
|   \\  /    A nd           | Website:  www.openfoam.com                      |
|    \\/     M anipulation  |                                                 |
\*---------------------------------------------------------------------------*/
FoamFile
{
    version     2.0;
    format      ascii;
    arch        "LSB;label=32;scalar=64";
    class       volScalarField;
    location    "2.37483013";
    object      T;
}
// * * * * * * * * * * * * * * * * * * * * * * * * * * * * * * * * * * * * * //

dimensions      [0 0 0 1 0 0 0];

internalField   nonuniform List<scalar> 
400
(
288.333
279.205
276.958
275.892
275.207
274.715
274.343
274.056
273.831
273.652
273.51
273.398
273.308
273.236
273.179
273.134
273.097
273.067
273.039
273.009
285.351
279.606
277.594
276.438
275.66
275.093
274.661
274.324
274.056
273.842
273.669
273.53
273.418
273.327
273.254
273.195
273.148
273.109
273.075
273.039
284.338
279.511
277.718
276.625
275.854
275.276
274.827
274.471
274.184
273.953
273.765
273.612
273.487
273.386
273.304
273.238
273.184
273.14
273.102
273.062
283.943
279.415
277.747
276.713
275.966
275.393
274.94
274.575
274.279
274.037
273.839
273.676
273.543
273.435
273.346
273.274
273.216
273.168
273.127
273.081
283.746
279.35
277.751
276.761
276.037
275.473
275.022
274.654
274.353
274.104
273.899
273.73
273.59
273.476
273.383
273.306
273.244
273.193
273.148
273.098
283.63
279.309
277.751
276.79
276.084
275.53
275.083
274.715
274.41
274.158
273.948
273.774
273.63
273.511
273.413
273.333
273.268
273.214
273.167
273.113
283.556
279.282
277.751
276.808
276.116
275.571
275.127
274.76
274.454
274.199
273.986
273.808
273.661
273.539
273.438
273.356
273.288
273.232
273.182
273.125
283.509
279.265
277.75
276.821
276.138
275.598
275.158
274.792
274.486
274.229
274.014
273.834
273.684
273.56
273.457
273.373
273.303
273.245
273.194
273.134
283.48
279.256
277.75
276.829
276.151
275.616
275.177
274.813
274.507
274.249
274.033
273.852
273.7
273.574
273.47
273.384
273.313
273.254
273.202
273.14
283.467
279.251
277.751
276.832
276.158
275.624
275.187
274.823
274.517
274.259
274.042
273.86
273.708
273.581
273.476
273.39
273.318
273.259
273.206
273.143
283.467
279.251
277.751
276.832
276.158
275.624
275.187
274.823
274.517
274.259
274.042
273.86
273.708
273.581
273.476
273.39
273.318
273.259
273.206
273.143
283.48
279.256
277.75
276.829
276.151
275.616
275.177
274.813
274.507
274.249
274.033
273.852
273.7
273.574
273.47
273.384
273.313
273.254
273.202
273.14
283.509
279.265
277.75
276.821
276.138
275.598
275.158
274.792
274.486
274.229
274.014
273.834
273.684
273.56
273.457
273.373
273.303
273.245
273.194
273.134
283.556
279.282
277.751
276.808
276.116
275.571
275.127
274.76
274.454
274.199
273.986
273.808
273.661
273.539
273.438
273.356
273.288
273.232
273.182
273.125
283.63
279.309
277.751
276.79
276.084
275.53
275.083
274.715
274.41
274.158
273.948
273.774
273.63
273.511
273.413
273.333
273.268
273.214
273.167
273.113
283.746
279.35
277.751
276.761
276.037
275.473
275.022
274.654
274.353
274.104
273.899
273.73
273.59
273.476
273.383
273.306
273.244
273.193
273.148
273.098
283.943
279.415
277.747
276.713
275.966
275.393
274.94
274.575
274.279
274.037
273.839
273.676
273.543
273.435
273.346
273.274
273.216
273.168
273.127
273.081
284.338
279.511
277.718
276.625
275.854
275.276
274.827
274.471
274.184
273.953
273.765
273.612
273.487
273.386
273.304
273.238
273.184
273.14
273.102
273.062
285.351
279.606
277.594
276.438
275.66
275.093
274.661
274.324
274.056
273.842
273.669
273.53
273.418
273.327
273.254
273.195
273.148
273.109
273.075
273.039
288.333
279.205
276.958
275.892
275.207
274.715
274.343
274.056
273.831
273.652
273.51
273.398
273.308
273.236
273.179
273.134
273.097
273.067
273.039
273.009
)
;

boundaryField
{
    leftWall
    {
        type            fixedValue;
        value           uniform 373;
    }
    rightWall
    {
        type            fixedValue;
        value           uniform 273;
    }
    topWall
    {
        type            fixedValue;
        value           uniform 273;
    }
    bottomWall
    {
        type            fixedValue;
        value           uniform 273;
    }
    frontAndBackPlanes
    {
        type            empty;
    }
}


// ************************************************************************* //
