/*--------------------------------*- C++ -*----------------------------------*\
| =========                 |                                                 |
| \\      /  F ield         | OpenFOAM: The Open Source CFD Toolbox           |
|  \\    /   O peration     | Version:  2506                                  |
|   \\  /    A nd           | Website:  www.openfoam.com                      |
|    \\/     M anipulation  |                                                 |
\*---------------------------------------------------------------------------*/
FoamFile
{
    version     2.0;
    format      ascii;
    arch        "LSB;label=32;scalar=64";
    class       volScalarField;
    location    "0.2184";
    object      alphat;
}
// * * * * * * * * * * * * * * * * * * * * * * * * * * * * * * * * * * * * * //

dimensions      [1 -1 -1 0 0 0 0];

internalField   nonuniform List<scalar> 
400
(
0.263732
0.416131
0.488605
0.513259
0.521074
0.52353
0.524301
0.524541
0.524613
0.524628
0.524624
0.524595
0.524512
0.524261
0.52348
0.521021
0.513214
0.488589
0.416164
0.264204
0.415549
3.87051
5.02173
5.41321
5.54914
5.59579
5.61158
5.61686
5.61859
5.6191
5.61909
5.61855
5.6168
5.61151
5.59575
5.54922
5.41356
5.02266
3.87238
0.416165
0.487855
5.01969
6.84561
7.51874
7.76258
7.84879
7.87871
7.88894
7.89237
7.89341
7.89341
7.89235
7.88891
7.8787
7.84888
7.76288
7.51953
6.8473
5.02267
0.488589
0.512443
5.41013
7.51742
8.33308
8.63878
8.74972
8.78905
8.80276
8.80744
8.80887
8.80887
8.80743
8.80277
8.78912
8.74992
8.63927
8.33416
7.51953
5.41356
0.513214
0.520243
5.54561
7.76059
8.63804
8.97351
9.09738
9.14198
9.15775
9.16319
9.16488
9.16489
9.16321
9.15779
9.14209
9.09765
8.97411
8.63927
7.76288
5.54921
0.52102
0.522703
5.59209
7.8465
8.74862
9.097
9.22692
9.27414
9.29099
9.29686
9.29869
9.2987
9.29688
9.29104
9.27427
9.22721
9.09765
8.74992
7.84887
5.59575
0.523477
0.523483
5.60782
7.8763
8.78779
9.14143
9.27396
9.32239
9.33976
9.34584
9.34775
9.34776
9.34587
9.33982
9.32252
9.27427
9.14209
8.78911
7.8787
5.6115
0.524254
0.523735
5.6131
7.8865
8.80143
9.15711
9.29072
9.33968
9.35729
9.36347
9.36542
9.36543
9.3635
9.35735
9.33982
9.29104
9.15779
8.80277
7.8889
5.61678
0.524502
0.523816
5.61485
7.88993
8.80609
9.16253
9.29656
9.34573
9.36344
9.36967
9.37163
9.37165
9.3697
9.3635
9.34587
9.29688
9.1632
8.80742
7.89233
5.61852
0.524581
0.523841
5.61537
7.89097
8.80752
9.16421
9.29838
9.34762
9.36537
9.37162
9.37359
9.3736
9.37165
9.36543
9.34776
9.2987
9.16488
8.80885
7.89337
5.61904
0.524604
0.523841
5.61537
7.89097
8.80752
9.16421
9.29838
9.34762
9.36537
9.37162
9.37359
9.3736
9.37165
9.36543
9.34776
9.2987
9.16488
8.80885
7.89337
5.61904
0.524604
0.523816
5.61485
7.88993
8.80609
9.16253
9.29656
9.34573
9.36344
9.36967
9.37163
9.37165
9.3697
9.3635
9.34587
9.29687
9.1632
8.80742
7.89233
5.61852
0.524581
0.523735
5.6131
7.8865
8.80143
9.15711
9.29072
9.33968
9.35729
9.36347
9.36542
9.36543
9.3635
9.35735
9.33982
9.29104
9.15779
8.80277
7.8889
5.61678
0.524502
0.523483
5.60782
7.8763
8.78779
9.14143
9.27396
9.32239
9.33976
9.34584
9.34775
9.34776
9.34587
9.33982
9.32252
9.27427
9.14209
8.78911
7.8787
5.6115
0.524254
0.522703
5.59209
7.8465
8.74862
9.097
9.22692
9.27414
9.29099
9.29686
9.29869
9.2987
9.29688
9.29104
9.27427
9.22721
9.09765
8.74992
7.84887
5.59575
0.523477
0.520243
5.54561
7.76059
8.63804
8.97351
9.09738
9.14198
9.15775
9.16319
9.16488
9.16489
9.16321
9.15779
9.14209
9.09765
8.97411
8.63927
7.76288
5.54921
0.52102
0.512443
5.41013
7.51742
8.33308
8.63878
8.74972
8.78905
8.80276
8.80744
8.80887
8.80887
8.80743
8.80277
8.78912
8.74992
8.63927
8.33416
7.51953
5.41356
0.513214
0.487855
5.01969
6.84561
7.51874
7.76258
7.84879
7.87871
7.88894
7.89238
7.89341
7.8934
7.89235
7.88891
7.8787
7.84888
7.76288
7.51953
6.8473
5.02267
0.488589
0.415549
3.87051
5.02173
5.41321
5.54914
5.59579
5.61158
5.61686
5.61859
5.61911
5.61908
5.61855
5.6168
5.61151
5.59575
5.54922
5.41356
5.02266
3.87238
0.416165
0.263732
0.416131
0.488605
0.513259
0.521074
0.52353
0.524301
0.524541
0.524613
0.52463
0.524622
0.524595
0.524512
0.52426
0.52348
0.521021
0.513214
0.488589
0.416164
0.264204
)
;

boundaryField
{
    leftWall
    {
        type            compressible::alphatWallFunction;
        value           nonuniform List<scalar> 
20
(
0.0781149
0.0918476
0.0961387
0.0973936
0.0977684
0.0978828
0.0979185
0.0979299
0.0979336
0.0979347
0.0979347
0.0979336
0.0979299
0.0979185
0.0978828
0.0977684
0.0973936
0.0961387
0.0918476
0.0781149
)
;
    }
    rightWall
    {
        type            compressible::alphatWallFunction;
        value           nonuniform List<scalar> 
20
(
0.0942302
0.110742
0.115895
0.1174
0.117849
0.117986
0.118028
0.118041
0.118045
0.118046
0.118046
0.118045
0.118041
0.118028
0.117986
0.117849
0.1174
0.115895
0.110742
0.0942302
)
;
    }
    topWall
    {
        type            compressible::alphatWallFunction;
        value           nonuniform List<scalar> 
20
(
0.0942584
0.110753
0.115903
0.117407
0.117856
0.117991
0.118032
0.118045
0.118048
0.118049
0.118048
0.118046
0.118042
0.118028
0.117986
0.117849
0.1174
0.115895
0.110742
0.0942302
)
;
    }
    bottomWall
    {
        type            compressible::alphatWallFunction;
        value           nonuniform List<scalar> 
20
(
0.0942584
0.110753
0.115903
0.117407
0.117856
0.117991
0.118033
0.118045
0.118048
0.118049
0.118048
0.118046
0.118042
0.118028
0.117986
0.117849
0.1174
0.115895
0.110742
0.0942302
)
;
    }
    frontAndBackPlanes
    {
        type            empty;
    }
}


// ************************************************************************* //
