/*--------------------------------*- C++ -*----------------------------------*\
| =========                 |                                                 |
| \\      /  F ield         | OpenFOAM: The Open Source CFD Toolbox           |
|  \\    /   O peration     | Version:  2506                                  |
|   \\  /    A nd           | Website:  www.openfoam.com                      |
|    \\/     M anipulation  |                                                 |
\*---------------------------------------------------------------------------*/
FoamFile
{
    version     2.0;
    format      ascii;
    arch        "LSB;label=32;scalar=64";
    class       volScalarField;
    location    "0.2184";
    object      k;
}
// * * * * * * * * * * * * * * * * * * * * * * * * * * * * * * * * * * * * * //

dimensions      [0 2 -2 0 0 0 0];

internalField   nonuniform List<scalar> 
400
(
0.0726343
0.103499
0.114366
0.117654
0.118643
0.118943
0.119034
0.119062
0.119069
0.11907
0.119069
0.119065
0.119055
0.119025
0.118931
0.118628
0.117638
0.114349
0.103476
0.0725867
0.103536
0.259831
0.295098
0.307254
0.311474
0.312903
0.313379
0.313535
0.313585
0.313599
0.313599
0.313583
0.313531
0.313374
0.312897
0.311468
0.307248
0.295091
0.259813
0.103476
0.114411
0.295101
0.339426
0.355719
0.361707
0.363832
0.364567
0.364816
0.364898
0.364923
0.364922
0.364897
0.364814
0.364565
0.363831
0.361707
0.35572
0.339427
0.295091
0.114349
0.117703
0.307255
0.355715
0.374142
0.381132
0.383683
0.384587
0.3849
0.385006
0.385038
0.385038
0.385006
0.3849
0.384587
0.383685
0.381135
0.374148
0.35572
0.307248
0.117638
0.118695
0.311474
0.3617
0.381127
0.388621
0.391403
0.392404
0.392756
0.392876
0.392914
0.392914
0.392877
0.392756
0.392405
0.391406
0.388627
0.381135
0.361707
0.311468
0.118628
0.119
0.312903
0.363823
0.383676
0.3914
0.394292
0.395343
0.395716
0.395845
0.395885
0.395885
0.395845
0.395716
0.395344
0.394296
0.391406
0.383684
0.363831
0.312897
0.11893
0.119094
0.31338
0.364557
0.384578
0.392398
0.395341
0.396415
0.396798
0.396931
0.396973
0.396973
0.396932
0.396799
0.396416
0.395344
0.392405
0.384587
0.364565
0.313373
0.119024
0.119125
0.313537
0.364806
0.38489
0.39275
0.395713
0.396797
0.397185
0.39732
0.397363
0.397363
0.397321
0.397186
0.396799
0.395716
0.392756
0.3849
0.364814
0.31353
0.119053
0.119135
0.313589
0.364889
0.384996
0.39287
0.395842
0.39693
0.39732
0.397457
0.397499
0.397499
0.397457
0.397321
0.396932
0.395845
0.392876
0.385006
0.364897
0.313581
0.119063
0.119138
0.313604
0.364914
0.385029
0.392907
0.395881
0.396971
0.397362
0.397499
0.397542
0.397542
0.397499
0.397363
0.396973
0.395885
0.392914
0.385038
0.364922
0.313597
0.119065
0.119138
0.313604
0.364914
0.385029
0.392907
0.395881
0.396971
0.397362
0.397499
0.397542
0.397542
0.397499
0.397363
0.396973
0.395885
0.392914
0.385038
0.364922
0.313597
0.119065
0.119135
0.313589
0.364889
0.384996
0.39287
0.395842
0.39693
0.39732
0.397457
0.397499
0.397499
0.397457
0.397321
0.396932
0.395845
0.392876
0.385006
0.364897
0.313581
0.119063
0.119125
0.313537
0.364806
0.38489
0.39275
0.395713
0.396797
0.397185
0.39732
0.397363
0.397363
0.397321
0.397186
0.396799
0.395716
0.392756
0.3849
0.364814
0.31353
0.119053
0.119094
0.31338
0.364557
0.384578
0.392398
0.395341
0.396415
0.396798
0.396931
0.396973
0.396973
0.396932
0.396799
0.396416
0.395344
0.392405
0.384587
0.364565
0.313373
0.119024
0.119
0.312903
0.363823
0.383676
0.3914
0.394292
0.395343
0.395716
0.395845
0.395885
0.395885
0.395845
0.395716
0.395344
0.394296
0.391406
0.383684
0.363831
0.312897
0.11893
0.118695
0.311474
0.3617
0.381127
0.388621
0.391403
0.392404
0.392756
0.392876
0.392914
0.392914
0.392876
0.392756
0.392405
0.391406
0.388627
0.381135
0.361707
0.311468
0.118628
0.117703
0.307255
0.355715
0.374142
0.381132
0.383683
0.384587
0.3849
0.385006
0.385038
0.385038
0.385006
0.3849
0.384587
0.383685
0.381135
0.374148
0.35572
0.307248
0.117638
0.114411
0.295101
0.339426
0.355719
0.361707
0.363832
0.364567
0.364816
0.364898
0.364923
0.364922
0.364897
0.364814
0.364565
0.363831
0.361707
0.35572
0.339427
0.295091
0.114349
0.103536
0.259831
0.295098
0.307254
0.311474
0.312903
0.313379
0.313535
0.313585
0.313599
0.313599
0.313583
0.313531
0.313374
0.312897
0.311468
0.307248
0.295091
0.259813
0.103476
0.0726343
0.103499
0.114366
0.117654
0.118643
0.118943
0.119034
0.119062
0.119069
0.11907
0.119069
0.119065
0.119055
0.119025
0.118931
0.118628
0.117638
0.114349
0.103476
0.0725867
)
;

boundaryField
{
    leftWall
    {
        type            kqRWallFunction;
        value           nonuniform List<scalar> 
20
(
0.0726343
0.103536
0.114411
0.117703
0.118695
0.119
0.119094
0.119125
0.119135
0.119138
0.119138
0.119135
0.119125
0.119094
0.119
0.118695
0.117703
0.114411
0.103536
0.0726343
)
;
    }
    rightWall
    {
        type            kqRWallFunction;
        value           nonuniform List<scalar> 
20
(
0.0725867
0.103476
0.114349
0.117638
0.118628
0.11893
0.119024
0.119053
0.119063
0.119065
0.119065
0.119063
0.119053
0.119024
0.11893
0.118628
0.117638
0.114349
0.103476
0.0725867
)
;
    }
    topWall
    {
        type            kqRWallFunction;
        value           nonuniform List<scalar> 
20
(
0.0726343
0.103499
0.114366
0.117654
0.118643
0.118943
0.119034
0.119062
0.119069
0.11907
0.119069
0.119065
0.119055
0.119025
0.118931
0.118628
0.117638
0.114349
0.103476
0.0725867
)
;
    }
    bottomWall
    {
        type            kqRWallFunction;
        value           nonuniform List<scalar> 
20
(
0.0726343
0.103499
0.114366
0.117654
0.118643
0.118943
0.119034
0.119062
0.119069
0.11907
0.119069
0.119065
0.119055
0.119025
0.118931
0.118628
0.117638
0.114349
0.103476
0.0725867
)
;
    }
    frontAndBackPlanes
    {
        type            empty;
    }
}


// ************************************************************************* //
