/*--------------------------------*- C++ -*----------------------------------*\
| =========                 |                                                 |
| \\      /  F ield         | OpenFOAM: The Open Source CFD Toolbox           |
|  \\    /   O peration     | Version:  2506                                  |
|   \\  /    A nd           | Website:  www.openfoam.com                      |
|    \\/     M anipulation  |                                                 |
\*---------------------------------------------------------------------------*/
FoamFile
{
    version     2.0;
    format      ascii;
    arch        "LSB;label=32;scalar=64";
    class       volScalarField;
    location    "0.2184";
    object      nut;
}
// * * * * * * * * * * * * * * * * * * * * * * * * * * * * * * * * * * * * * //

dimensions      [0 2 -1 0 0 0 0];

internalField   nonuniform List<scalar> 
400
(
0.000263958
0.000415678
0.000487974
0.000512573
0.00052037
0.00052282
0.00052359
0.000523829
0.0005239
0.000523915
0.000523911
0.000523882
0.000523799
0.000523548
0.000522769
0.000520314
0.000512517
0.000487925
0.000415599
0.000263845
0.000415763
0.00386709
0.00501578
0.0054062
0.00554173
0.00558823
0.00560397
0.00560924
0.00561096
0.00561147
0.00561146
0.00561092
0.00560917
0.00560389
0.00558815
0.00554168
0.0054062
0.00501584
0.00386712
0.0004156
0.000488075
0.00501546
0.00683771
0.00750914
0.00775228
0.00783823
0.00786804
0.00787824
0.00788166
0.00788269
0.00788269
0.00788163
0.0078782
0.007868
0.00783821
0.00775234
0.00750932
0.006838
0.00501584
0.000487926
0.000512668
0.00540564
0.00750884
0.0083225
0.00862735
0.00873796
0.00877716
0.00879082
0.00879548
0.00879691
0.00879691
0.00879547
0.00879082
0.00877718
0.00873803
0.00862754
0.00832284
0.00750932
0.0054062
0.000512517
0.000520469
0.00554103
0.00775175
0.0086271
0.00896166
0.00908516
0.00912962
0.00914533
0.00915076
0.00915244
0.00915244
0.00915076
0.00914535
0.00912967
0.00908529
0.00896192
0.00862754
0.00775234
0.00554168
0.000520312
0.000522929
0.00558748
0.00783759
0.00873755
0.009085
0.00921453
0.0092616
0.00927839
0.00928424
0.00928606
0.00928607
0.00928425
0.00927842
0.00926167
0.00921468
0.00908529
0.00873803
0.00783821
0.00558814
0.000522766
0.00052371
0.0056032
0.00786735
0.00877668
0.00912936
0.00926151
0.00930978
0.0093271
0.00933316
0.00933506
0.00933507
0.00933317
0.00932713
0.00930986
0.00926167
0.00912967
0.00877718
0.00786799
0.00560388
0.000523542
0.000523962
0.00560848
0.00787754
0.00879031
0.00914503
0.00927825
0.00932705
0.0093446
0.00935076
0.0093527
0.00935271
0.00935078
0.00934464
0.00932713
0.00927842
0.00914535
0.00879081
0.00787818
0.00560915
0.00052379
0.000524043
0.00561022
0.00788097
0.00879496
0.00915044
0.00928408
0.00933309
0.00935074
0.00935695
0.00935891
0.00935892
0.00935697
0.00935078
0.00933317
0.00928425
0.00915076
0.00879546
0.00788161
0.00561089
0.000523868
0.000524067
0.00561075
0.00788201
0.00879638
0.00915212
0.00928589
0.00933498
0.00935267
0.0093589
0.00936086
0.00936087
0.00935892
0.00935271
0.00933507
0.00928607
0.00915243
0.00879689
0.00788265
0.00561141
0.000523892
0.000524067
0.00561075
0.00788201
0.00879638
0.00915212
0.00928589
0.00933498
0.00935267
0.0093589
0.00936086
0.00936087
0.00935892
0.00935271
0.00933507
0.00928607
0.00915243
0.00879689
0.00788265
0.00561141
0.000523892
0.000524043
0.00561022
0.00788097
0.00879496
0.00915044
0.00928408
0.00933309
0.00935074
0.00935695
0.00935891
0.00935892
0.00935697
0.00935078
0.00933317
0.00928425
0.00915076
0.00879546
0.00788161
0.00561089
0.000523868
0.000523962
0.00560848
0.00787754
0.00879031
0.00914503
0.00927825
0.00932705
0.0093446
0.00935077
0.0093527
0.00935271
0.00935078
0.00934464
0.00932713
0.00927842
0.00914535
0.00879081
0.00787818
0.00560915
0.00052379
0.00052371
0.0056032
0.00786735
0.00877668
0.00912936
0.00926151
0.00930978
0.0093271
0.00933316
0.00933506
0.00933507
0.00933317
0.00932713
0.00930986
0.00926167
0.00912967
0.00877718
0.00786799
0.00560388
0.000523542
0.000522929
0.00558748
0.00783759
0.00873755
0.009085
0.00921453
0.0092616
0.00927839
0.00928424
0.00928606
0.00928607
0.00928425
0.00927842
0.00926167
0.00921468
0.00908529
0.00873803
0.00783821
0.00558814
0.000522766
0.000520469
0.00554103
0.00775175
0.0086271
0.00896166
0.00908516
0.00912962
0.00914533
0.00915076
0.00915243
0.00915244
0.00915076
0.00914535
0.00912967
0.00908529
0.00896192
0.00862754
0.00775234
0.00554168
0.000520312
0.000512668
0.00540564
0.00750884
0.0083225
0.00862735
0.00873796
0.00877716
0.00879082
0.00879548
0.00879691
0.00879691
0.00879547
0.00879082
0.00877718
0.00873803
0.00862754
0.00832284
0.00750932
0.0054062
0.000512517
0.000488075
0.00501546
0.00683771
0.00750914
0.00775228
0.00783823
0.00786804
0.00787824
0.00788166
0.00788269
0.00788268
0.00788163
0.0078782
0.007868
0.00783821
0.00775234
0.00750932
0.006838
0.00501584
0.000487926
0.000415763
0.00386709
0.00501578
0.0054062
0.00554173
0.00558823
0.00560397
0.00560924
0.00561096
0.00561147
0.00561145
0.00561092
0.00560917
0.00560389
0.00558815
0.00554168
0.0054062
0.00501584
0.00386712
0.0004156
0.000263958
0.000415678
0.000487974
0.000512573
0.00052037
0.00052282
0.00052359
0.000523829
0.0005239
0.000523917
0.000523909
0.000523882
0.000523799
0.000523548
0.000522769
0.000520314
0.000512517
0.000487925
0.000415599
0.000263845
)
;

boundaryField
{
    leftWall
    {
        type            nutkWallFunction;
        blending        stepwise;
        value           nonuniform List<scalar> 
20
(
6.82056e-05
8.01962e-05
8.3943e-05
8.50387e-05
8.53659e-05
8.54658e-05
8.5497e-05
8.55069e-05
8.55102e-05
8.55112e-05
8.55112e-05
8.55102e-05
8.55069e-05
8.5497e-05
8.54658e-05
8.53659e-05
8.50387e-05
8.3943e-05
8.01962e-05
6.82056e-05
)
;
    }
    rightWall
    {
        type            nutkWallFunction;
        blending        stepwise;
        value           nonuniform List<scalar> 
20
(
7.99869e-05
9.40029e-05
9.83768e-05
9.96546e-05
0.000100036
0.000100151
0.000100187
0.000100199
0.000100202
0.000100203
0.000100203
0.000100202
0.000100199
0.000100187
0.000100151
0.000100036
9.96546e-05
9.83768e-05
9.40029e-05
7.99869e-05
)
;
    }
    topWall
    {
        type            nutkWallFunction;
        blending        stepwise;
        value           nonuniform List<scalar> 
20
(
8.00108e-05
9.40124e-05
9.83834e-05
9.96608e-05
0.000100041
0.000100156
0.000100191
0.000100202
0.000100205
0.000100205
0.000100205
0.000100203
0.000100199
0.000100188
0.000100152
0.000100036
9.96546e-05
9.83768e-05
9.40029e-05
7.99869e-05
)
;
    }
    bottomWall
    {
        type            nutkWallFunction;
        blending        stepwise;
        value           nonuniform List<scalar> 
20
(
8.00108e-05
9.40124e-05
9.83834e-05
9.96608e-05
0.000100041
0.000100156
0.000100191
0.000100202
0.000100205
0.000100205
0.000100205
0.000100203
0.000100199
0.000100188
0.000100152
0.000100036
9.96546e-05
9.83768e-05
9.40029e-05
7.99869e-05
)
;
    }
    frontAndBackPlanes
    {
        type            empty;
    }
}


// ************************************************************************* //
