/*--------------------------------*- C++ -*----------------------------------*\
| =========                 |                                                 |
| \\      /  F ield         | OpenFOAM: The Open Source CFD Toolbox           |
|  \\    /   O peration     | Version:  2506                                  |
|   \\  /    A nd           | Website:  www.openfoam.com                      |
|    \\/     M anipulation  |                                                 |
\*---------------------------------------------------------------------------*/
FoamFile
{
    version     2.0;
    format      ascii;
    arch        "LSB;label=32;scalar=64";
    class       surfaceScalarField;
    location    "0.2184";
    object      phi;
}
// * * * * * * * * * * * * * * * * * * * * * * * * * * * * * * * * * * * * * //

dimensions      [1 0 -1 0 0 0 0];

oriented        oriented;

internalField   nonuniform List<scalar> 
760
(
-4.28377e-06
-1.44201e-05
2.84987e-06
-1.1431e-05
3.87911e-06
-8.41914e-06
3.60111e-06
-7.23714e-06
3.08427e-06
-6.33513e-06
2.59293e-06
-5.55459e-06
2.17404e-06
-4.84546e-06
1.82834e-06
-4.20391e-06
1.54629e-06
-3.63014e-06
1.31679e-06
-3.12108e-06
1.12984e-06
-2.67125e-06
9.77219e-07
-2.27416e-06
8.52283e-07
-1.92318e-06
7.49587e-07
-1.61214e-06
6.64411e-07
-1.33574e-06
5.92164e-07
-1.08999e-06
5.2828e-07
-8.73241e-07
4.75274e-07
-6.94075e-07
4.51083e-07
-5.77508e-07
-4.28273e-07
-5.96757e-06
-9.18964e-06
-1.96266e-07
-9.76491e-06
2.75966e-06
-7.66515e-06
3.63324e-06
-6.44248e-06
3.58392e-06
-5.59387e-06
3.21322e-06
-4.90991e-06
2.77863e-06
-4.30521e-06
2.37375e-06
-3.75892e-06
2.02479e-06
-3.26608e-06
1.733e-06
-2.82363e-06
1.49183e-06
-2.42797e-06
1.29328e-06
-2.07483e-06
1.12998e-06
-1.75959e-06
9.95653e-07
-1.4777e-06
8.8516e-07
-1.22521e-06
7.94745e-07
-9.99559e-07
7.23296e-07
-8.01786e-07
6.71617e-07
-6.42395e-07
6.32854e-07
-5.38743e-07
-3.9214e-07
-6.79855e-06
-6.27029e-06
-9.62018e-07
-7.36764e-06
2.23895e-06
-6.36143e-06
3.45269e-06
-5.50358e-06
3.61723e-06
-4.82532e-06
3.35072e-06
-4.26152e-06
2.95743e-06
-3.76087e-06
2.56232e-06
-3.30528e-06
2.20833e-06
-2.88972e-06
1.90518e-06
-2.51199e-06
1.6505e-06
-2.17008e-06
1.4384e-06
-1.86153e-06
1.26263e-06
-1.58337e-06
1.11763e-06
-1.33253e-06
9.98838e-07
-1.10636e-06
9.02965e-07
-9.03663e-07
8.28111e-07
-7.26923e-07
7.71824e-07
-5.86104e-07
7.27447e-07
-4.94365e-07
-3.67751e-07
-7.8997e-06
-4.391e-06
-1.31054e-06
-5.41587e-06
2.16653e-06
-4.99485e-06
3.53857e-06
-4.48932e-06
3.79699e-06
-4.02109e-06
3.57818e-06
-3.59746e-06
3.20213e-06
-3.20509e-06
2.80645e-06
-2.83874e-06
2.44229e-06
-2.49805e-06
2.12432e-06
-2.18345e-06
1.85314e-06
-1.89487e-06
1.62463e-06
-1.63149e-06
1.43364e-06
-1.39179e-06
1.27531e-06
-1.17397e-06
1.14555e-06
-9.76518e-07
1.04114e-06
-7.9922e-07
9.5938e-07
-6.45155e-07
8.96688e-07
-5.23408e-07
8.47403e-07
-4.45079e-07
-3.3789e-07
-8.80332e-06
-3.09444e-06
-1.61946e-06
-3.94398e-06
2.15534e-06
-3.79007e-06
3.67725e-06
-3.52189e-06
4.01115e-06
-3.22979e-06
3.82729e-06
-2.9352e-06
3.46226e-06
-2.64425e-06
3.06351e-06
-2.36179e-06
2.68837e-06
-2.09219e-06
2.35536e-06
-1.8385e-06
2.06754e-06
-1.60245e-06
1.82238e-06
-1.38456e-06
1.61574e-06
-1.18448e-06
1.44342e-06
-1.0014e-06
1.30166e-06
-8.34665e-07
1.18719e-06
-6.8471e-07
1.09674e-06
-5.54697e-07
1.02597e-06
-4.52627e-07
9.68636e-07
-3.87743e-07
-2.96992e-07
-9.50796e-06
-2.14958e-06
-1.91191e-06
-2.84477e-06
2.11636e-06
-2.78799e-06
3.78072e-06
-2.65502e-06
4.18976e-06
-2.48605e-06
4.04243e-06
-2.29371e-06
3.69122e-06
-2.08905e-06
3.29279e-06
-1.88121e-06
2.91013e-06
-1.67698e-06
2.56532e-06
-1.48095e-06
2.26374e-06
-1.29592e-06
2.00434e-06
-1.12326e-06
1.784e-06
-9.63406e-07
1.59913e-06
-8.16238e-07
1.44624e-06
-6.81674e-07
1.32203e-06
-5.60453e-07
1.2228e-06
-4.55459e-07
1.14354e-06
-3.73353e-07
1.07729e-06
-3.21493e-07
-2.47127e-07
-9.97199e-06
-1.45904e-06
-2.15553e-06
-1.95372e-06
2.05325e-06
-1.94853e-06
3.8365e-06
-1.89099e-06
4.31511e-06
-1.8005e-06
4.20507e-06
-1.68254e-06
3.87087e-06
-1.54702e-06
3.47685e-06
-1.40306e-06
3.09094e-06
-1.25756e-06
2.73845e-06
-1.11528e-06
2.42688e-06
-9.79201e-07
2.15663e-06
-8.51015e-07
1.92549e-06
-7.3149e-07
1.73043e-06
-6.20884e-07
1.56828e-06
-5.19408e-07
1.43571e-06
-4.27845e-07
1.32882e-06
-3.4855e-07
1.24213e-06
-2.86655e-07
1.16831e-06
-2.47665e-07
-1.90649e-07
-1.03324e-05
-9.07497e-07
-2.3545e-06
-1.22102e-06
1.98326e-06
-1.23215e-06
3.85717e-06
-1.21177e-06
4.39311e-06
-1.1678e-06
4.31637e-06
-1.10175e-06
3.99925e-06
-1.02036e-06
3.61172e-06
-9.3048e-07
3.22561e-06
-8.37479e-07
2.86889e-06
-7.45133e-07
2.55083e-06
-6.55888e-07
2.27305e-06
-5.71186e-07
2.03413e-06
-4.91773e-07
1.83155e-06
-4.17997e-07
1.66239e-06
-3.50134e-07
1.5234e-06
-2.88815e-07
1.41057e-06
-2.35697e-07
1.31818e-06
-1.94261e-07
1.2387e-06
-1.68181e-07
-1.29536e-07
-1.05718e-05
-4.35407e-07
-2.49486e-06
-5.86992e-07
1.92529e-06
-5.96371e-07
3.85978e-06
-5.9113e-07
4.4361e-06
-5.73814e-07
4.38409e-06
-5.44529e-07
4.08056e-06
-5.06573e-07
3.69908e-06
-4.63535e-07
3.31409e-06
-4.183e-07
2.95541e-06
-3.72931e-07
2.63362e-06
-3.28789e-07
2.3512e-06
-2.86692e-07
2.10732e-06
-2.47087e-07
1.89983e-06
-2.10203e-07
1.72604e-06
-1.76218e-07
1.58275e-06
-1.45482e-07
1.46592e-06
-1.18847e-07
1.36974e-06
-9.80731e-08
1.28656e-06
-8.49995e-08
-6.54812e-08
-1.06908e-05
-3.48852e-14
-2.56695e-06
-6.95286e-14
1.89306e-06
-9.64945e-14
3.85768e-06
-1.33555e-13
4.45471e-06
-1.61063e-13
4.41578e-06
-1.90885e-13
4.11972e-06
-2.30265e-13
3.7418e-06
-2.4509e-13
3.35777e-06
-2.79463e-13
2.99841e-06
-3.61612e-13
2.67495e-06
-4.42693e-13
2.39035e-06
-4.55185e-13
2.14407e-06
-4.06267e-13
1.93418e-06
-3.35908e-13
1.75808e-06
-2.73344e-13
1.61265e-06
-2.16123e-13
1.49382e-06
-1.59373e-13
1.39575e-06
-1.15913e-13
1.31075e-06
-8.22573e-14
-5.36921e-14
-1.06908e-05
4.35407e-07
-2.56695e-06
5.86992e-07
1.89306e-06
5.96371e-07
3.85768e-06
5.9113e-07
4.45471e-06
5.73813e-07
4.41578e-06
5.44529e-07
4.11972e-06
5.06572e-07
3.7418e-06
4.63534e-07
3.35777e-06
4.18299e-07
2.99841e-06
3.72931e-07
2.67495e-06
3.28788e-07
2.39035e-06
2.86691e-07
2.14407e-06
2.47086e-07
1.93418e-06
2.10202e-07
1.75808e-06
1.76218e-07
1.61265e-06
1.45482e-07
1.49382e-06
1.18847e-07
1.39575e-06
9.80729e-08
1.31075e-06
8.49993e-08
6.54811e-08
-1.05718e-05
9.07497e-07
-2.49486e-06
1.22102e-06
1.92529e-06
1.23215e-06
3.85978e-06
1.21177e-06
4.4361e-06
1.1678e-06
4.38409e-06
1.10175e-06
4.08056e-06
1.02036e-06
3.69908e-06
9.3048e-07
3.31409e-06
8.37479e-07
2.95541e-06
7.45132e-07
2.63362e-06
6.55887e-07
2.3512e-06
5.71185e-07
2.10732e-06
4.91772e-07
1.89983e-06
4.17997e-07
1.72604e-06
3.50134e-07
1.58275e-06
2.88815e-07
1.46592e-06
2.35696e-07
1.36974e-06
1.94261e-07
1.28656e-06
1.68181e-07
1.29536e-07
-1.03324e-05
1.45904e-06
-2.3545e-06
1.95372e-06
1.98326e-06
1.94853e-06
3.85717e-06
1.89099e-06
4.39311e-06
1.8005e-06
4.31637e-06
1.68254e-06
3.99925e-06
1.54702e-06
3.61172e-06
1.40306e-06
3.22561e-06
1.25756e-06
2.86889e-06
1.11528e-06
2.55083e-06
9.79201e-07
2.27305e-06
8.51015e-07
2.03413e-06
7.31489e-07
1.83155e-06
6.20884e-07
1.66239e-06
5.19408e-07
1.52341e-06
4.27845e-07
1.41057e-06
3.4855e-07
1.31818e-06
2.86655e-07
1.2387e-06
2.47665e-07
1.90649e-07
-9.97199e-06
2.14958e-06
-2.15553e-06
2.84477e-06
2.05325e-06
2.78799e-06
3.8365e-06
2.65502e-06
4.31511e-06
2.48605e-06
4.20507e-06
2.29371e-06
3.87087e-06
2.08905e-06
3.47685e-06
1.88121e-06
3.09094e-06
1.67698e-06
2.73845e-06
1.48095e-06
2.42688e-06
1.29592e-06
2.15663e-06
1.12326e-06
1.92549e-06
9.63405e-07
1.73043e-06
8.16238e-07
1.56828e-06
6.81674e-07
1.43572e-06
5.60453e-07
1.32882e-06
4.55459e-07
1.24213e-06
3.73352e-07
1.16831e-06
3.21493e-07
2.47127e-07
-9.50796e-06
3.09444e-06
-1.91191e-06
3.94398e-06
2.11636e-06
3.79007e-06
3.78072e-06
3.52189e-06
4.18976e-06
3.22979e-06
4.04243e-06
2.9352e-06
3.69122e-06
2.64425e-06
3.29279e-06
2.36179e-06
2.91013e-06
2.09219e-06
2.56532e-06
1.8385e-06
2.26374e-06
1.60245e-06
2.00434e-06
1.38456e-06
1.784e-06
1.18448e-06
1.59913e-06
1.0014e-06
1.44624e-06
8.34665e-07
1.32203e-06
6.8471e-07
1.2228e-06
5.54697e-07
1.14354e-06
4.52627e-07
1.07729e-06
3.87743e-07
2.96992e-07
-8.80332e-06
4.391e-06
-1.61946e-06
5.41587e-06
2.15534e-06
4.99485e-06
3.67725e-06
4.48932e-06
4.01115e-06
4.02109e-06
3.82729e-06
3.59746e-06
3.46226e-06
3.20509e-06
3.06351e-06
2.83874e-06
2.68837e-06
2.49805e-06
2.35536e-06
2.18345e-06
2.06754e-06
1.89487e-06
1.82238e-06
1.63149e-06
1.61574e-06
1.39179e-06
1.44342e-06
1.17397e-06
1.30166e-06
9.76518e-07
1.18719e-06
7.9922e-07
1.09675e-06
6.45155e-07
1.02597e-06
5.23408e-07
9.68637e-07
4.45079e-07
3.37891e-07
-7.8997e-06
6.27029e-06
-1.31054e-06
7.36764e-06
2.16653e-06
6.36143e-06
3.53857e-06
5.50358e-06
3.79699e-06
4.82532e-06
3.57818e-06
4.26152e-06
3.20213e-06
3.76087e-06
2.80645e-06
3.30528e-06
2.44229e-06
2.88972e-06
2.12432e-06
2.51199e-06
1.85314e-06
2.17008e-06
1.62463e-06
1.86153e-06
1.43364e-06
1.58337e-06
1.27531e-06
1.33253e-06
1.14555e-06
1.10636e-06
1.04114e-06
9.03663e-07
9.59381e-07
7.26923e-07
8.96688e-07
5.86105e-07
8.47404e-07
4.94365e-07
3.67751e-07
-6.79855e-06
9.18964e-06
-9.62017e-07
9.76491e-06
2.23895e-06
7.66515e-06
3.45269e-06
6.44248e-06
3.61723e-06
5.59387e-06
3.35072e-06
4.90992e-06
2.95743e-06
4.30521e-06
2.56232e-06
3.75892e-06
2.20833e-06
3.26608e-06
1.90518e-06
2.82364e-06
1.6505e-06
2.42797e-06
1.4384e-06
2.07483e-06
1.26263e-06
1.75959e-06
1.11763e-06
1.4777e-06
9.98838e-07
1.22521e-06
9.02966e-07
9.9956e-07
8.28112e-07
8.01787e-07
7.71825e-07
6.42395e-07
7.27448e-07
5.38743e-07
3.92141e-07
-5.96757e-06
1.44201e-05
-1.96266e-07
1.1431e-05
2.75966e-06
8.41914e-06
3.63324e-06
7.23714e-06
3.58392e-06
6.33514e-06
3.21322e-06
5.55459e-06
2.77863e-06
4.84546e-06
2.37375e-06
4.20391e-06
2.02479e-06
3.63015e-06
1.733e-06
3.12108e-06
1.49183e-06
2.67125e-06
1.29328e-06
2.27416e-06
1.12998e-06
1.92318e-06
9.95653e-07
1.61214e-06
8.8516e-07
1.33574e-06
7.94745e-07
1.08999e-06
7.23296e-07
8.73241e-07
6.71618e-07
6.94076e-07
6.32854e-07
5.77508e-07
4.28274e-07
-4.28377e-06
2.84987e-06
3.87911e-06
3.60111e-06
3.08427e-06
2.59293e-06
2.17404e-06
1.82834e-06
1.54629e-06
1.31679e-06
1.12984e-06
9.77219e-07
8.52283e-07
7.49587e-07
6.64411e-07
5.92164e-07
5.2828e-07
4.75274e-07
4.51083e-07
)
;

boundaryField
{
    leftWall
    {
        type            calculated;
        value           nonuniform List<scalar> 
20
(
1.76062e-05
1.12079e-05
1.23343e-05
1.40601e-05
1.546e-05
1.64921e-05
1.71992e-05
1.76916e-05
1.80061e-05
1.81596e-05
1.81596e-05
1.80061e-05
1.76916e-05
1.71992e-05
1.64921e-05
1.546e-05
1.40601e-05
1.23343e-05
1.12079e-05
1.76062e-05
)
;
    }
    rightWall
    {
        type            calculated;
        value           nonuniform List<scalar> 
20
(
4.39678e-07
5.96721e-07
7.03059e-07
8.17543e-07
9.27738e-07
1.02742e-06
1.11183e-06
1.17759e-06
1.22251e-06
1.24527e-06
1.24527e-06
1.22251e-06
1.17759e-06
1.11183e-06
1.02742e-06
9.27739e-07
8.17543e-07
7.03059e-07
5.96721e-07
4.39678e-07
)
;
    }
    topWall
    {
        type            calculated;
        value           nonuniform List<scalar> 
20
(
1.81102e-05
9.33584e-06
9.1199e-06
8.16643e-06
7.09835e-06
6.13816e-06
5.29862e-06
4.5623e-06
3.91688e-06
3.35233e-06
2.85884e-06
2.42702e-06
2.04821e-06
1.71487e-06
1.42093e-06
1.16224e-06
9.37127e-07
7.47082e-07
6.01699e-07
4.39678e-07
)
;
    }
    bottomWall
    {
        type            calculated;
        value           nonuniform List<scalar> 
20
(
1.81102e-05
9.33584e-06
9.1199e-06
8.16643e-06
7.09835e-06
6.13816e-06
5.29862e-06
4.5623e-06
3.91688e-06
3.35232e-06
2.85885e-06
2.42702e-06
2.04821e-06
1.71487e-06
1.42093e-06
1.16224e-06
9.37128e-07
7.47082e-07
6.01699e-07
4.39678e-07
)
;
    }
    frontAndBackPlanes
    {
        type            empty;
    }
}


// ************************************************************************* //
