/*--------------------------------*- C++ -*----------------------------------*\
| =========                 |                                                 |
| \\      /  F ield         | OpenFOAM: The Open Source CFD Toolbox           |
|  \\    /   O peration     | Version:  2506                                  |
|   \\  /    A nd           | Website:  www.openfoam.com                      |
|    \\/     M anipulation  |                                                 |
\*---------------------------------------------------------------------------*/
FoamFile
{
    version     2.0;
    format      ascii;
    arch        "LSB;label=32;scalar=64";
    class       volScalarField;
    location    "0.2184";
    object      T;
}
// * * * * * * * * * * * * * * * * * * * * * * * * * * * * * * * * * * * * * //

dimensions      [0 0 0 1 0 0 0];

internalField   nonuniform List<scalar> 
400
(
281.929
274.097
273.272
273.091
273.032
273.012
273.004
273.002
273.001
273
273
273
273
273
273
273
273
273
273
273
280.558
274.937
273.703
273.263
273.098
273.036
273.013
273.005
273.002
273.001
273
273
273
273
273
273
273
273
273
273
280.299
275.098
273.831
273.331
273.129
273.05
273.019
273.007
273.003
273.001
273
273
273
273
273
273
273
273
273
273
280.25
275.148
273.879
273.363
273.146
273.057
273.022
273.009
273.003
273.001
273
273
273
273
273
273
273
273
273
273
280.239
275.164
273.897
273.376
273.154
273.061
273.024
273.009
273.004
273.001
273.001
273
273
273
273
273
273
273
273
273
280.235
275.169
273.904
273.381
273.157
273.063
273.025
273.01
273.004
273.001
273.001
273
273
273
273
273
273
273
273
273
280.233
275.171
273.906
273.383
273.158
273.064
273.026
273.01
273.004
273.002
273.001
273
273
273
273
273
273
273
273
273
280.232
275.171
273.907
273.383
273.159
273.064
273.026
273.01
273.004
273.002
273.001
273
273
273
273
273
273
273
273
273
280.231
275.171
273.907
273.384
273.159
273.065
273.026
273.01
273.004
273.002
273.001
273
273
273
273
273
273
273
273
273
280.231
275.171
273.907
273.384
273.159
273.065
273.026
273.01
273.004
273.002
273.001
273
273
273
273
273
273
273
273
273
280.231
275.171
273.907
273.384
273.159
273.065
273.026
273.01
273.004
273.002
273.001
273
273
273
273
273
273
273
273
273
280.231
275.171
273.907
273.384
273.159
273.065
273.026
273.01
273.004
273.002
273.001
273
273
273
273
273
273
273
273
273
280.232
275.171
273.907
273.383
273.159
273.064
273.026
273.01
273.004
273.002
273.001
273
273
273
273
273
273
273
273
273
280.233
275.171
273.906
273.383
273.158
273.064
273.026
273.01
273.004
273.002
273.001
273
273
273
273
273
273
273
273
273
280.235
275.169
273.904
273.381
273.157
273.063
273.025
273.01
273.004
273.001
273.001
273
273
273
273
273
273
273
273
273
280.239
275.164
273.897
273.376
273.154
273.061
273.024
273.009
273.004
273.001
273.001
273
273
273
273
273
273
273
273
273
280.25
275.148
273.879
273.363
273.146
273.057
273.022
273.009
273.003
273.001
273
273
273
273
273
273
273
273
273
273
280.299
275.098
273.831
273.331
273.129
273.05
273.019
273.007
273.003
273.001
273
273
273
273
273
273
273
273
273
273
280.558
274.937
273.703
273.263
273.098
273.036
273.013
273.005
273.002
273.001
273
273
273
273
273
273
273
273
273
273
281.929
274.097
273.272
273.091
273.032
273.012
273.004
273.002
273.001
273
273
273
273
273
273
273
273
273
273
273
)
;

boundaryField
{
    leftWall
    {
        type            fixedValue;
        value           uniform 373;
    }
    rightWall
    {
        type            fixedValue;
        value           uniform 273;
    }
    topWall
    {
        type            fixedValue;
        value           uniform 273;
    }
    bottomWall
    {
        type            fixedValue;
        value           uniform 273;
    }
    frontAndBackPlanes
    {
        type            empty;
    }
}


// ************************************************************************* //
