/*--------------------------------*- C++ -*----------------------------------*\
| =========                 |                                                 |
| \\      /  F ield         | OpenFOAM: The Open Source CFD Toolbox           |
|  \\    /   O peration     | Version:  2506                                  |
|   \\  /    A nd           | Website:  www.openfoam.com                      |
|    \\/     M anipulation  |                                                 |
\*---------------------------------------------------------------------------*/
FoamFile
{
    version     2.0;
    format      ascii;
    arch        "LSB;label=32;scalar=64";
    class       surfaceScalarField;
    location    "2.909796161";
    object      phi;
}
// * * * * * * * * * * * * * * * * * * * * * * * * * * * * * * * * * * * * * //

dimensions      [1 0 -1 0 0 0 0];

oriented        oriented;

internalField   nonuniform List<scalar> 
370
(
-7.20076e-06
-8.57283e-06
-2.61674e-06
-4.32735e-06
-6.15928e-07
-3.22149e-06
5.24864e-07
-2.89038e-06
1.20795e-06
-2.53096e-06
1.62934e-06
-2.21171e-06
1.90074e-06
-1.93663e-06
2.08088e-06
-1.69556e-06
2.20066e-06
-1.48382e-06
-1.29875e-06
-1.58954e-06
-5.51716e-06
-1.07299e-06
-4.25866e-06
-3.17559e-07
-3.42817e-06
2.29205e-07
-2.92088e-06
6.61358e-07
-2.4794e-06
1.00346e-06
-2.10367e-06
1.27371e-06
-1.79136e-06
1.48941e-06
-1.53104e-06
1.66281e-06
-1.31245e-06
-1.12818e-06
-2.49479e-07
-4.52884e-06
-2.77472e-07
-3.67947e-06
-9.57031e-08
-3.08453e-06
1.23974e-07
-2.63873e-06
3.65847e-07
-2.24493e-06
6.09566e-07
-1.8989e-06
8.40802e-07
-1.60403e-06
1.05318e-06
-1.3563e-06
1.24452e-06
-1.14897e-06
-9.75817e-07
-3.05064e-07
-3.86553e-06
-2.71203e-07
-3.18809e-06
-1.74897e-07
-2.6755e-06
-4.18418e-08
-2.28431e-06
1.27394e-07
-1.94705e-06
3.21666e-07
-1.64941e-06
5.26824e-07
-1.39147e-06
7.31885e-07
-1.17177e-06
9.29626e-07
-9.86641e-07
-8.3196e-07
-4.05339e-07
-3.22383e-06
-4.03928e-07
-2.68303e-06
-3.37562e-07
-2.25245e-06
-2.2995e-07
-1.91677e-06
-8.60782e-08
-1.63246e-06
8.6822e-08
-1.38376e-06
2.78314e-07
-1.16731e-06
4.7835e-07
-9.81498e-07
6.78887e-07
-8.23982e-07
-6.92063e-07
-4.96932e-07
-2.58073e-06
-5.28228e-07
-2.15849e-06
-4.88504e-07
-1.81485e-06
-3.98159e-07
-1.54185e-06
-2.6782e-07
-1.31168e-06
-1.06035e-07
-1.11174e-06
7.78585e-08
-9.37847e-07
2.74715e-07
-7.88089e-07
4.76587e-07
-6.60691e-07
-5.53809e-07
-5.82811e-07
-1.93617e-06
-6.32254e-07
-1.62494e-06
-6.10939e-07
-1.36763e-06
-5.33898e-07
-1.16111e-06
-4.13207e-07
-9.87015e-07
-2.5871e-07
-8.36357e-07
-7.97633e-08
-7.05508e-07
1.14802e-07
-5.92714e-07
3.1714e-07
-4.96603e-07
-4.15895e-07
-6.51635e-07
-1.29062e-06
-7.12482e-07
-1.08604e-06
-7.02969e-07
-9.14683e-07
-6.35298e-07
-7.76317e-07
-5.21568e-07
-6.59602e-07
-3.72192e-07
-5.5879e-07
-1.96709e-07
-4.71339e-07
-3.89904e-09
-3.95951e-07
1.98407e-07
-3.31674e-07
-2.7768e-07
-6.98319e-07
-6.45119e-07
-7.66188e-07
-5.43796e-07
-7.64005e-07
-4.58209e-07
-7.02411e-07
-3.88846e-07
-5.93305e-07
-3.30298e-07
-4.47324e-07
-2.79772e-07
-2.74145e-07
-2.35975e-07
-8.25843e-08
-1.98227e-07
1.19501e-07
-1.66037e-07
-1.38996e-07
-7.21784e-07
2.51374e-12
-7.9294e-07
2.46711e-12
-7.94318e-07
2.42129e-12
-7.35752e-07
2.41851e-12
-6.28984e-07
2.44883e-12
-4.84722e-07
2.50963e-12
-3.12716e-07
2.58661e-12
-1.21816e-07
2.67647e-12
8.00953e-08
2.76962e-12
2.83221e-12
-7.21784e-07
6.45124e-07
-7.9294e-07
5.43801e-07
-7.94318e-07
4.58214e-07
-7.35752e-07
3.88851e-07
-6.28984e-07
3.30303e-07
-4.84722e-07
2.79777e-07
-3.12716e-07
2.35981e-07
-1.21816e-07
1.98233e-07
8.00951e-08
1.66043e-07
1.39002e-07
-6.98319e-07
1.29062e-06
-7.66188e-07
1.08605e-06
-7.64005e-07
9.14688e-07
-7.02411e-07
7.76322e-07
-5.93306e-07
6.59607e-07
-4.47324e-07
5.58795e-07
-2.74145e-07
4.71344e-07
-8.25848e-08
3.95957e-07
1.19501e-07
3.31679e-07
2.77686e-07
-6.51635e-07
1.93617e-06
-7.12482e-07
1.62495e-06
-7.02969e-07
1.36763e-06
-6.35298e-07
1.16111e-06
-5.21568e-07
9.8702e-07
-3.72193e-07
8.36362e-07
-1.96709e-07
7.05513e-07
-3.89968e-09
5.9272e-07
1.98406e-07
4.96609e-07
4.15901e-07
-5.82811e-07
2.58073e-06
-6.32254e-07
2.1585e-06
-6.10939e-07
1.81485e-06
-5.33898e-07
1.54185e-06
-4.13207e-07
1.31168e-06
-2.5871e-07
1.11175e-06
-7.97639e-08
9.37852e-07
1.14801e-07
7.88095e-07
3.17139e-07
6.60697e-07
5.53814e-07
-4.96932e-07
3.22384e-06
-5.28228e-07
2.68303e-06
-4.88504e-07
2.25246e-06
-3.98159e-07
1.91678e-06
-2.6782e-07
1.63247e-06
-1.06036e-07
1.38376e-06
7.78578e-08
1.16731e-06
2.74714e-07
9.81503e-07
4.76586e-07
8.23987e-07
6.92068e-07
-4.05338e-07
3.86554e-06
-4.03928e-07
3.18809e-06
-3.37562e-07
2.6755e-06
-2.2995e-07
2.28431e-06
-8.60782e-08
1.94705e-06
8.68217e-08
1.64941e-06
2.78313e-07
1.39147e-06
4.78349e-07
1.17177e-06
6.78886e-07
9.86646e-07
8.31965e-07
-3.05064e-07
4.52884e-06
-2.71202e-07
3.67947e-06
-1.74896e-07
3.08453e-06
-4.18415e-08
2.63873e-06
1.27395e-07
2.24494e-06
3.21665e-07
1.8989e-06
5.26824e-07
1.60403e-06
7.31884e-07
1.35631e-06
9.29625e-07
1.14897e-06
9.75822e-07
-2.49479e-07
5.51716e-06
-2.77471e-07
4.25866e-06
-9.57026e-08
3.42817e-06
1.23975e-07
2.92088e-06
3.65847e-07
2.47941e-06
6.09566e-07
2.10367e-06
8.40802e-07
1.79136e-06
1.05318e-06
1.53105e-06
1.24452e-06
1.31245e-06
1.12818e-06
-1.58954e-06
8.57283e-06
-1.07299e-06
4.32735e-06
-3.17559e-07
3.22149e-06
2.29205e-07
2.89038e-06
6.61359e-07
2.53096e-06
1.00346e-06
2.21172e-06
1.27371e-06
1.93664e-06
1.48941e-06
1.69556e-06
1.66281e-06
1.48383e-06
1.29875e-06
-7.20076e-06
-2.61674e-06
-6.15928e-07
5.24864e-07
1.20795e-06
1.62934e-06
1.90074e-06
2.08088e-06
2.20066e-06
)
;

boundaryField
{
    leftWall
    {
        type            calculated;
        value           nonuniform List<scalar> 
20
(
8.0966e-06
-8.19563e-07
-1.39938e-07
2.12944e-07
3.19289e-07
4.00621e-07
4.80074e-07
5.45239e-07
5.90651e-07
6.13962e-07
6.13962e-07
5.90651e-07
5.45239e-07
4.80074e-07
4.00621e-07
3.19289e-07
2.12944e-07
-1.39938e-07
-8.19562e-07
8.0966e-06
)
;
    }
    rightWall
    {
        type            calculated;
        value           nonuniform List<scalar> 0();
    }
    topWall
    {
        type            calculated;
        value           nonuniform List<scalar> 10(8.32837e-06 3.64885e-07 1.7872e-06 2.26925e-06 2.32488e-06 2.22616e-06 2.06051e-06 1.87081e-06 1.68065e-06 1.50162e-06);
    }
    bottomWall
    {
        type            calculated;
        value           nonuniform List<scalar> 10(8.32837e-06 3.64887e-07 1.7872e-06 2.26926e-06 2.32489e-06 2.22616e-06 2.06051e-06 1.87081e-06 1.68065e-06 1.50162e-06);
    }
    frontAndBackPlanes
    {
        type            empty;
    }
    procBoundary1to0
    {
        type            processor;
        value           nonuniform List<scalar> 
20
(
2.27715e-06
1.80204e-06
1.41445e-06
1.11561e-06
8.74007e-07
6.7706e-07
5.20628e-07
4.03463e-07
3.2528e-07
2.8614e-07
2.8614e-07
3.2528e-07
4.03462e-07
5.20627e-07
6.77059e-07
8.74006e-07
1.11561e-06
1.41445e-06
1.80204e-06
2.27715e-06
)
;
    }
}


// ************************************************************************* //
