/*--------------------------------*- C++ -*----------------------------------*\
| =========                 |                                                 |
| \\      /  F ield         | OpenFOAM: The Open Source CFD Toolbox           |
|  \\    /   O peration     | Version:  2506                                  |
|   \\  /    A nd           | Website:  www.openfoam.com                      |
|    \\/     M anipulation  |                                                 |
\*---------------------------------------------------------------------------*/
FoamFile
{
    version     2.0;
    format      ascii;
    arch        "LSB;label=32;scalar=64";
    class       volScalarField;
    location    "2.909796161";
    object      rho;
}
// * * * * * * * * * * * * * * * * * * * * * * * * * * * * * * * * * * * * * //

dimensions      [1 -3 0 0 0 0 0];

internalField   nonuniform List<scalar> 
200
(
997.411
999.717
1000.29
1000.56
1000.73
1000.86
1000.96
1001.04
1001.1
1001.15
998.169
999.623
1000.13
1000.42
1000.62
1000.77
1000.88
1000.97
1001.04
1001.1
998.433
999.653
1000.1
1000.38
1000.57
1000.72
1000.84
1000.93
1001.01
1001.07
998.538
999.681
1000.1
1000.36
1000.55
1000.69
1000.81
1000.91
1000.98
1001.05
998.59
999.7
1000.1
1000.35
1000.53
1000.68
1000.79
1000.89
1000.96
1001.03
998.621
999.713
1000.1
1000.34
1000.52
1000.66
1000.78
1000.87
1000.95
1001.02
998.64
999.721
1000.11
1000.34
1000.51
1000.65
1000.77
1000.86
1000.94
1001.01
998.652
999.726
1000.11
1000.34
1000.51
1000.65
1000.76
1000.85
1000.93
1001
998.66
999.729
1000.11
1000.34
1000.51
1000.64
1000.75
1000.85
1000.93
1000.99
998.663
999.731
1000.11
1000.34
1000.51
1000.64
1000.75
1000.84
1000.92
1000.99
998.663
999.731
1000.11
1000.34
1000.51
1000.64
1000.75
1000.84
1000.92
1000.99
998.66
999.729
1000.11
1000.34
1000.51
1000.64
1000.75
1000.85
1000.93
1000.99
998.652
999.726
1000.11
1000.34
1000.51
1000.65
1000.76
1000.85
1000.93
1001
998.64
999.721
1000.11
1000.34
1000.51
1000.65
1000.77
1000.86
1000.94
1001.01
998.621
999.713
1000.1
1000.34
1000.52
1000.66
1000.78
1000.87
1000.95
1001.02
998.59
999.7
1000.1
1000.35
1000.53
1000.68
1000.79
1000.89
1000.96
1001.03
998.538
999.681
1000.1
1000.36
1000.55
1000.69
1000.81
1000.91
1000.98
1001.05
998.433
999.653
1000.1
1000.38
1000.57
1000.72
1000.84
1000.93
1001.01
1001.07
998.169
999.623
1000.13
1000.42
1000.62
1000.77
1000.88
1000.97
1001.04
1001.1
997.411
999.717
1000.29
1000.56
1000.73
1000.86
1000.96
1001.04
1001.1
1001.15
)
;

boundaryField
{
    leftWall
    {
        type            calculated;
        value           uniform 973.493;
    }
    rightWall
    {
        type            calculated;
        value           nonuniform List<scalar> 0();
    }
    topWall
    {
        type            calculated;
        value           uniform 1001.36;
    }
    bottomWall
    {
        type            calculated;
        value           uniform 1001.36;
    }
    frontAndBackPlanes
    {
        type            empty;
    }
    procBoundary1to0
    {
        type            processor;
        value           nonuniform List<scalar> 
20
(
1001.19
1001.15
1001.12
1001.1
1001.09
1001.07
1001.06
1001.06
1001.05
1001.05
1001.05
1001.05
1001.06
1001.06
1001.07
1001.09
1001.1
1001.12
1001.15
1001.19
)
;
    }
}


// ************************************************************************* //
