/*--------------------------------*- C++ -*----------------------------------*\
| =========                 |                                                 |
| \\      /  F ield         | OpenFOAM: The Open Source CFD Toolbox           |
|  \\    /   O peration     | Version:  2506                                  |
|   \\  /    A nd           | Website:  www.openfoam.com                      |
|    \\/     M anipulation  |                                                 |
\*---------------------------------------------------------------------------*/
FoamFile
{
    version     2.0;
    format      ascii;
    arch        "LSB;label=32;scalar=64";
    class       volScalarField;
    location    "2.909796161";
    object      T;
}
// * * * * * * * * * * * * * * * * * * * * * * * * * * * * * * * * * * * * * //

dimensions      [0 0 0 1 0 0 0];

internalField   nonuniform List<scalar> 
200
(
288.771
279.631
277.349
276.251
275.537
275.017
274.618
274.303
274.051
273.846
285.789
280.007
277.972
276.794
275.994
275.405
274.949
274.588
274.296
274.057
284.744
279.888
278.08
276.971
276.184
275.587
275.117
274.739
274.431
274.177
284.331
279.775
278.094
277.049
276.289
275.7
275.229
274.845
274.529
274.266
284.123
279.698
278.088
277.088
276.353
275.777
275.31
274.925
274.605
274.337
284.002
279.647
278.08
277.11
276.396
275.83
275.369
274.985
274.664
274.393
283.924
279.614
278.073
277.124
276.424
275.868
275.412
275.03
274.708
274.436
283.875
279.593
278.069
277.133
276.443
275.894
275.441
275.062
274.741
274.468
283.846
279.581
278.066
277.138
276.454
275.91
275.46
275.082
274.762
274.488
283.832
279.576
278.065
277.141
276.46
275.918
275.47
275.092
274.772
274.498
283.832
279.576
278.065
277.141
276.46
275.918
275.47
275.092
274.772
274.498
283.846
279.581
278.066
277.138
276.454
275.91
275.46
275.082
274.762
274.488
283.875
279.593
278.069
277.133
276.443
275.894
275.441
275.062
274.741
274.468
283.924
279.614
278.073
277.124
276.424
275.868
275.412
275.03
274.708
274.436
284.002
279.647
278.08
277.11
276.396
275.83
275.369
274.985
274.664
274.393
284.123
279.698
278.088
277.088
276.353
275.777
275.31
274.925
274.605
274.337
284.331
279.775
278.094
277.049
276.289
275.7
275.229
274.845
274.529
274.266
284.744
279.888
278.08
276.971
276.184
275.587
275.117
274.739
274.431
274.177
285.789
280.007
277.972
276.794
275.994
275.405
274.949
274.588
274.296
274.057
288.771
279.631
277.349
276.251
275.537
275.017
274.618
274.303
274.051
273.846
)
;

boundaryField
{
    leftWall
    {
        type            fixedValue;
        value           uniform 373;
    }
    rightWall
    {
        type            fixedValue;
        value           nonuniform List<scalar> 0();
    }
    topWall
    {
        type            fixedValue;
        value           uniform 273;
    }
    bottomWall
    {
        type            fixedValue;
        value           uniform 273;
    }
    frontAndBackPlanes
    {
        type            empty;
    }
    procBoundary1to0
    {
        type            processor;
        value           nonuniform List<scalar> 
20
(
273.68
273.861
273.966
274.047
274.112
274.164
274.205
274.235
274.255
274.265
274.265
274.255
274.235
274.205
274.164
274.112
274.047
273.966
273.861
273.68
)
;
    }
}


// ************************************************************************* //
