/*--------------------------------*- C++ -*----------------------------------*\
| =========                 |                                                 |
| \\      /  F ield         | OpenFOAM: The Open Source CFD Toolbox           |
|  \\    /   O peration     | Version:  2506                                  |
|   \\  /    A nd           | Website:  www.openfoam.com                      |
|    \\/     M anipulation  |                                                 |
\*---------------------------------------------------------------------------*/
FoamFile
{
    version     2.0;
    format      ascii;
    arch        "LSB;label=32;scalar=64";
    class       volVectorField;
    location    "2.909796161";
    object      U;
}
// * * * * * * * * * * * * * * * * * * * * * * * * * * * * * * * * * * * * * //

dimensions      [0 1 -1 0 0 0 0];

internalField   nonuniform List<vector> 
200
(
(-0.000186644 -0.000202362 0)
(-9.53581e-06 -5.41702e-05 0)
(-1.1282e-05 -4.16031e-05 0)
(1.2487e-07 -3.96485e-05 0)
(7.36064e-06 -3.62022e-05 0)
(1.16054e-05 -3.24739e-05 0)
(1.42633e-05 -2.8895e-05 0)
(1.60169e-05 -2.5567e-05 0)
(1.71877e-05 -2.25501e-05 0)
(1.79545e-05 -1.98691e-05 0)
(-2.28657e-05 -2.57148e-05 0)
(-7.9657e-06 -3.20377e-05 0)
(-5.21545e-06 -2.77814e-05 0)
(-2.51933e-07 -2.45466e-05 0)
(3.76254e-06 -2.10684e-05 0)
(6.81792e-06 -1.80024e-05 0)
(9.21472e-06 -1.54397e-05 0)
(1.11287e-05 -1.32875e-05 0)
(1.26659e-05 -1.14627e-05 0)
(1.39028e-05 -9.90924e-06 0)
(-4.02565e-06 -3.80989e-05 0)
(-2.27477e-06 -3.12845e-05 0)
(-1.68366e-06 -2.58871e-05 0)
(7.54842e-08 -2.20363e-05 0)
(1.98005e-06 -1.87089e-05 0)
(3.92974e-06 -1.5832e-05 0)
(5.83193e-06 -1.34039e-05 0)
(7.60873e-06 -1.13728e-05 0)
(9.2231e-06 -9.67381e-06 0)
(1.06657e-05 -8.25197e-06 0)
(-5.40729e-06 -3.41541e-05 0)
(-2.57423e-06 -2.77845e-05 0)
(-1.83459e-06 -2.30961e-05 0)
(-9.0218e-07 -1.96581e-05 0)
(3.00368e-07 -1.67276e-05 0)
(1.77013e-06 -1.41564e-05 0)
(3.386e-06 -1.1943e-05 0)
(5.04034e-06 -1.00686e-05 0)
(6.65972e-06 -8.49471e-06 0)
(8.19883e-06 -7.18107e-06 0)
(-6.78905e-06 -2.8509e-05 0)
(-3.61348e-06 -2.35782e-05 0)
(-2.95373e-06 -1.97688e-05 0)
(-2.29973e-06 -1.6841e-05 0)
(-1.32224e-06 -1.43473e-05 0)
(-4.03434e-08 -1.2157e-05 0)
(1.43634e-06 -1.0253e-05 0)
(3.01757e-06 -8.6235e-06 0)
(4.6309e-06 -7.24573e-06 0)
(6.221e-06 -6.09333e-06 0)
(-7.9358e-06 -2.32196e-05 0)
(-4.54437e-06 -1.93797e-05 0)
(-4.05491e-06 -1.62899e-05 0)
(-3.58123e-06 -1.38512e-05 0)
(-2.72862e-06 -1.17887e-05 0)
(-1.54533e-06 -9.99129e-06 0)
(-1.44361e-07 -8.42723e-06 0)
(1.39341e-06 -7.08179e-06 0)
(3.00017e-06 -5.93877e-06 0)
(4.61856e-06 -4.98052e-06 0)
(-9.03774e-06 -1.80792e-05 0)
(-5.34003e-06 -1.51478e-05 0)
(-4.96453e-06 -1.27411e-05 0)
(-4.61871e-06 -1.08178e-05 0)
(-3.85783e-06 -9.19701e-06 0)
(-2.74164e-06 -7.79294e-06 0)
(-1.3898e-06 -6.57303e-06 0)
(1.18788e-07 -5.52183e-06 0)
(1.71855e-06 -4.62664e-06 0)
(3.35169e-06 -3.87519e-06 0)
(-9.93737e-06 -1.29194e-05 0)
(-5.96222e-06 -1.0855e-05 0)
(-5.6537e-06 -9.1369e-06 0)
(-5.39493e-06 -7.75358e-06 0)
(-4.70034e-06 -6.58774e-06 0)
(-3.63194e-06 -5.58059e-06 0)
(-2.31422e-06 -4.70679e-06 0)
(-8.26489e-07 -3.95361e-06 0)
(7.66325e-07 -3.31161e-06 0)
(2.40609e-06 -2.7724e-06 0)
(-1.05544e-05 -7.74912e-06 0)
(-6.38104e-06 -6.52499e-06 0)
(-6.11198e-06 -5.49582e-06 0)
(-5.90876e-06 -4.66313e-06 0)
(-5.25802e-06 -3.96066e-06 0)
(-4.22136e-06 -3.3545e-06 0)
(-2.92617e-06 -2.82911e-06 0)
(-1.45255e-06 -2.37632e-06 0)
(1.34548e-07 -1.99026e-06 0)
(1.77662e-06 -1.66598e-06 0)
(-1.08667e-05 -2.58222e-06 0)
(-6.59018e-06 -2.17684e-06 0)
(-6.33977e-06 -1.83416e-06 0)
(-6.16391e-06 -1.55622e-06 0)
(-5.53524e-06 -1.32159e-06 0)
(-4.51465e-06 -1.11921e-06 0)
(-3.23086e-06 -9.43877e-07 0)
(-1.76449e-06 -7.92804e-07 0)
(-1.80646e-07 -6.63991e-07 0)
(1.46193e-06 -5.55795e-07 0)
(-1.08667e-05 2.58226e-06 0)
(-6.59018e-06 2.17688e-06 0)
(-6.33977e-06 1.8342e-06 0)
(-6.16391e-06 1.55626e-06 0)
(-5.53524e-06 1.32163e-06 0)
(-4.51465e-06 1.11925e-06 0)
(-3.23086e-06 9.43919e-07 0)
(-1.76449e-06 7.92847e-07 0)
(-1.80647e-07 6.64035e-07 0)
(1.46193e-06 5.5584e-07 0)
(-1.05544e-05 7.74916e-06 0)
(-6.38104e-06 6.52503e-06 0)
(-6.11198e-06 5.49586e-06 0)
(-5.90876e-06 4.66316e-06 0)
(-5.25803e-06 3.9607e-06 0)
(-4.22137e-06 3.35454e-06 0)
(-2.92617e-06 2.82915e-06 0)
(-1.45255e-06 2.37636e-06 0)
(1.34544e-07 1.9903e-06 0)
(1.77661e-06 1.66602e-06 0)
(-9.93736e-06 1.29194e-05 0)
(-5.96222e-06 1.08551e-05 0)
(-5.6537e-06 9.13694e-06 0)
(-5.39493e-06 7.75362e-06 0)
(-4.70034e-06 6.58778e-06 0)
(-3.63194e-06 5.58063e-06 0)
(-2.31422e-06 4.70683e-06 0)
(-8.26494e-07 3.95366e-06 0)
(7.6632e-07 3.31165e-06 0)
(2.40609e-06 2.77244e-06 0)
(-9.03774e-06 1.80792e-05 0)
(-5.34003e-06 1.51479e-05 0)
(-4.96453e-06 1.27411e-05 0)
(-4.61871e-06 1.08178e-05 0)
(-3.85783e-06 9.19705e-06 0)
(-2.74164e-06 7.79298e-06 0)
(-1.3898e-06 6.57307e-06 0)
(1.18782e-07 5.52188e-06 0)
(1.71854e-06 4.62669e-06 0)
(3.35168e-06 3.87523e-06 0)
(-7.9358e-06 2.32196e-05 0)
(-4.54436e-06 1.93798e-05 0)
(-4.05491e-06 1.62899e-05 0)
(-3.58123e-06 1.38512e-05 0)
(-2.72862e-06 1.17888e-05 0)
(-1.54534e-06 9.99133e-06 0)
(-1.44365e-07 8.42727e-06 0)
(1.39341e-06 7.08184e-06 0)
(3.00016e-06 5.93881e-06 0)
(4.61856e-06 4.98056e-06 0)
(-6.78904e-06 2.8509e-05 0)
(-3.61348e-06 2.35783e-05 0)
(-2.95373e-06 1.97688e-05 0)
(-2.29973e-06 1.6841e-05 0)
(-1.32224e-06 1.43473e-05 0)
(-4.03446e-08 1.2157e-05 0)
(1.43634e-06 1.0253e-05 0)
(3.01757e-06 8.62354e-06 0)
(4.63089e-06 7.24578e-06 0)
(6.22099e-06 6.09338e-06 0)
(-5.40728e-06 3.41541e-05 0)
(-2.57422e-06 2.77845e-05 0)
(-1.83458e-06 2.30961e-05 0)
(-9.02176e-07 1.96581e-05 0)
(3.0037e-07 1.67276e-05 0)
(1.77013e-06 1.41564e-05 0)
(3.386e-06 1.1943e-05 0)
(5.04033e-06 1.00686e-05 0)
(6.65971e-06 8.49475e-06 0)
(8.19882e-06 7.18111e-06 0)
(-4.02564e-06 3.80989e-05 0)
(-2.27477e-06 3.12846e-05 0)
(-1.68365e-06 2.58871e-05 0)
(7.54884e-08 2.20363e-05 0)
(1.98005e-06 1.8709e-05 0)
(3.92974e-06 1.5832e-05 0)
(5.83193e-06 1.3404e-05 0)
(7.60873e-06 1.13728e-05 0)
(9.22309e-06 9.67385e-06 0)
(1.06657e-05 8.25201e-06 0)
(-2.28657e-05 2.57148e-05 0)
(-7.9657e-06 3.20377e-05 0)
(-5.21544e-06 2.77814e-05 0)
(-2.51929e-07 2.45466e-05 0)
(3.76255e-06 2.10684e-05 0)
(6.81792e-06 1.80024e-05 0)
(9.21472e-06 1.54398e-05 0)
(1.11287e-05 1.32876e-05 0)
(1.26659e-05 1.14628e-05 0)
(1.39028e-05 9.90928e-06 0)
(-0.000186644 0.000202362 0)
(-9.53582e-06 5.41702e-05 0)
(-1.1282e-05 4.16031e-05 0)
(1.24873e-07 3.96485e-05 0)
(7.36064e-06 3.62022e-05 0)
(1.16054e-05 3.24739e-05 0)
(1.42633e-05 2.8895e-05 0)
(1.60169e-05 2.55671e-05 0)
(1.71877e-05 2.25502e-05 0)
(1.79545e-05 1.98691e-05 0)
)
;

boundaryField
{
    leftWall
    {
        type            noSlip;
    }
    rightWall
    {
        type            noSlip;
    }
    topWall
    {
        type            noSlip;
    }
    bottomWall
    {
        type            noSlip;
    }
    frontAndBackPlanes
    {
        type            empty;
    }
    procBoundary1to0
    {
        type            processor;
        value           nonuniform List<vector> 
20
(
(1.84209e-05 -1.75265e-05 0)
(1.48922e-05 -8.58871e-06 0)
(1.19385e-05 -7.06525e-06 0)
(9.63108e-06 -6.09321e-06 0)
(7.74838e-06 -5.14172e-06 0)
(6.20343e-06 -4.19026e-06 0)
(4.97019e-06 -3.25604e-06 0)
(4.04315e-06 -2.32847e-06 0)
(3.42302e-06 -1.39916e-06 0)
(3.11211e-06 -4.66798e-07 0)
(3.11211e-06 4.66844e-07 0)
(3.42301e-06 1.3992e-06 0)
(4.04314e-06 2.32852e-06 0)
(4.97018e-06 3.25608e-06 0)
(6.20342e-06 4.1903e-06 0)
(7.74838e-06 5.14177e-06 0)
(9.63107e-06 6.09325e-06 0)
(1.19385e-05 7.06529e-06 0)
(1.48922e-05 8.58874e-06 0)
(1.84209e-05 1.75265e-05 0)
)
;
    }
}


// ************************************************************************* //
