/*--------------------------------*- C++ -*----------------------------------*\
| =========                 |                                                 |
| \\      /  F ield         | OpenFOAM: The Open Source CFD Toolbox           |
|  \\    /   O peration     | Version:  2506                                  |
|   \\  /    A nd           | Website:  www.openfoam.com                      |
|    \\/     M anipulation  |                                                 |
\*---------------------------------------------------------------------------*/
FoamFile
{
    version     2.0;
    format      ascii;
    arch        "LSB;label=32;scalar=64";
    class       surfaceScalarField;
    location    "0.2184";
    object      phi;
}
// * * * * * * * * * * * * * * * * * * * * * * * * * * * * * * * * * * * * * //

dimensions      [1 0 -1 0 0 0 0];

oriented        oriented;

internalField   nonuniform List<scalar> 
370
(
-4.28377e-06
-1.44201e-05
2.84987e-06
-1.1431e-05
3.87911e-06
-8.41914e-06
3.60111e-06
-7.23714e-06
3.08427e-06
-6.33513e-06
2.59293e-06
-5.55459e-06
2.17404e-06
-4.84546e-06
1.82834e-06
-4.20391e-06
1.54629e-06
-3.63014e-06
-3.12108e-06
-5.96757e-06
-9.18964e-06
-1.96266e-07
-9.76491e-06
2.75966e-06
-7.66515e-06
3.63324e-06
-6.44248e-06
3.58392e-06
-5.59387e-06
3.21322e-06
-4.90991e-06
2.77863e-06
-4.30521e-06
2.37375e-06
-3.75892e-06
2.02479e-06
-3.26608e-06
-2.82363e-06
-6.79855e-06
-6.27029e-06
-9.62018e-07
-7.36764e-06
2.23895e-06
-6.36143e-06
3.45269e-06
-5.50358e-06
3.61723e-06
-4.82532e-06
3.35072e-06
-4.26152e-06
2.95743e-06
-3.76087e-06
2.56232e-06
-3.30528e-06
2.20833e-06
-2.88972e-06
-2.51199e-06
-7.8997e-06
-4.391e-06
-1.31054e-06
-5.41587e-06
2.16653e-06
-4.99485e-06
3.53857e-06
-4.48932e-06
3.79699e-06
-4.02109e-06
3.57818e-06
-3.59746e-06
3.20213e-06
-3.20509e-06
2.80645e-06
-2.83874e-06
2.44229e-06
-2.49805e-06
-2.18345e-06
-8.80332e-06
-3.09444e-06
-1.61946e-06
-3.94398e-06
2.15534e-06
-3.79007e-06
3.67725e-06
-3.52189e-06
4.01115e-06
-3.22979e-06
3.82729e-06
-2.9352e-06
3.46226e-06
-2.64425e-06
3.06351e-06
-2.36179e-06
2.68837e-06
-2.09219e-06
-1.8385e-06
-9.50796e-06
-2.14958e-06
-1.91191e-06
-2.84477e-06
2.11636e-06
-2.78799e-06
3.78072e-06
-2.65502e-06
4.18976e-06
-2.48605e-06
4.04243e-06
-2.29371e-06
3.69122e-06
-2.08905e-06
3.29279e-06
-1.88121e-06
2.91013e-06
-1.67698e-06
-1.48095e-06
-9.97199e-06
-1.45904e-06
-2.15553e-06
-1.95372e-06
2.05325e-06
-1.94853e-06
3.8365e-06
-1.89099e-06
4.31511e-06
-1.8005e-06
4.20507e-06
-1.68254e-06
3.87087e-06
-1.54702e-06
3.47685e-06
-1.40306e-06
3.09094e-06
-1.25756e-06
-1.11528e-06
-1.03324e-05
-9.07497e-07
-2.3545e-06
-1.22102e-06
1.98326e-06
-1.23215e-06
3.85717e-06
-1.21177e-06
4.39311e-06
-1.1678e-06
4.31637e-06
-1.10175e-06
3.99925e-06
-1.02036e-06
3.61172e-06
-9.3048e-07
3.22561e-06
-8.37479e-07
-7.45133e-07
-1.05718e-05
-4.35407e-07
-2.49486e-06
-5.86992e-07
1.92529e-06
-5.96371e-07
3.85978e-06
-5.9113e-07
4.4361e-06
-5.73814e-07
4.38409e-06
-5.44529e-07
4.08056e-06
-5.06573e-07
3.69908e-06
-4.63535e-07
3.31409e-06
-4.183e-07
-3.72931e-07
-1.06908e-05
-3.48852e-14
-2.56695e-06
-6.95286e-14
1.89306e-06
-9.64945e-14
3.85768e-06
-1.33555e-13
4.45471e-06
-1.61063e-13
4.41578e-06
-1.90885e-13
4.11972e-06
-2.30265e-13
3.7418e-06
-2.4509e-13
3.35777e-06
-2.79463e-13
-3.61612e-13
-1.06908e-05
4.35407e-07
-2.56695e-06
5.86992e-07
1.89306e-06
5.96371e-07
3.85768e-06
5.9113e-07
4.45471e-06
5.73813e-07
4.41578e-06
5.44529e-07
4.11972e-06
5.06572e-07
3.7418e-06
4.63534e-07
3.35777e-06
4.18299e-07
3.72931e-07
-1.05718e-05
9.07497e-07
-2.49486e-06
1.22102e-06
1.92529e-06
1.23215e-06
3.85978e-06
1.21177e-06
4.4361e-06
1.1678e-06
4.38409e-06
1.10175e-06
4.08056e-06
1.02036e-06
3.69908e-06
9.3048e-07
3.31409e-06
8.37479e-07
7.45132e-07
-1.03324e-05
1.45904e-06
-2.3545e-06
1.95372e-06
1.98326e-06
1.94853e-06
3.85717e-06
1.89099e-06
4.39311e-06
1.8005e-06
4.31637e-06
1.68254e-06
3.99925e-06
1.54702e-06
3.61172e-06
1.40306e-06
3.22561e-06
1.25756e-06
1.11528e-06
-9.97199e-06
2.14958e-06
-2.15553e-06
2.84477e-06
2.05325e-06
2.78799e-06
3.8365e-06
2.65502e-06
4.31511e-06
2.48605e-06
4.20507e-06
2.29371e-06
3.87087e-06
2.08905e-06
3.47685e-06
1.88121e-06
3.09094e-06
1.67698e-06
1.48095e-06
-9.50796e-06
3.09444e-06
-1.91191e-06
3.94398e-06
2.11636e-06
3.79007e-06
3.78072e-06
3.52189e-06
4.18976e-06
3.22979e-06
4.04243e-06
2.9352e-06
3.69122e-06
2.64425e-06
3.29279e-06
2.36179e-06
2.91013e-06
2.09219e-06
1.8385e-06
-8.80332e-06
4.391e-06
-1.61946e-06
5.41587e-06
2.15534e-06
4.99485e-06
3.67725e-06
4.48932e-06
4.01115e-06
4.02109e-06
3.82729e-06
3.59746e-06
3.46226e-06
3.20509e-06
3.06351e-06
2.83874e-06
2.68837e-06
2.49805e-06
2.18345e-06
-7.8997e-06
6.27029e-06
-1.31054e-06
7.36764e-06
2.16653e-06
6.36143e-06
3.53857e-06
5.50358e-06
3.79699e-06
4.82532e-06
3.57818e-06
4.26152e-06
3.20213e-06
3.76087e-06
2.80645e-06
3.30528e-06
2.44229e-06
2.88972e-06
2.51199e-06
-6.79855e-06
9.18964e-06
-9.62017e-07
9.76491e-06
2.23895e-06
7.66515e-06
3.45269e-06
6.44248e-06
3.61723e-06
5.59387e-06
3.35072e-06
4.90992e-06
2.95743e-06
4.30521e-06
2.56232e-06
3.75892e-06
2.20833e-06
3.26608e-06
2.82364e-06
-5.96757e-06
1.44201e-05
-1.96266e-07
1.1431e-05
2.75966e-06
8.41914e-06
3.63324e-06
7.23714e-06
3.58392e-06
6.33514e-06
3.21322e-06
5.55459e-06
2.77863e-06
4.84546e-06
2.37375e-06
4.20391e-06
2.02479e-06
3.63015e-06
3.12108e-06
-4.28377e-06
2.84987e-06
3.87911e-06
3.60111e-06
3.08427e-06
2.59293e-06
2.17404e-06
1.82834e-06
1.54629e-06
)
;

boundaryField
{
    leftWall
    {
        type            calculated;
        value           nonuniform List<scalar> 
20
(
1.76062e-05
1.12079e-05
1.23343e-05
1.40601e-05
1.546e-05
1.64921e-05
1.71992e-05
1.76916e-05
1.80061e-05
1.81596e-05
1.81596e-05
1.80061e-05
1.76916e-05
1.71992e-05
1.64921e-05
1.546e-05
1.40601e-05
1.23343e-05
1.12079e-05
1.76062e-05
)
;
    }
    rightWall
    {
        type            calculated;
        value           nonuniform List<scalar> 0();
    }
    topWall
    {
        type            calculated;
        value           nonuniform List<scalar> 10(1.81102e-05 9.33584e-06 9.1199e-06 8.16643e-06 7.09835e-06 6.13816e-06 5.29862e-06 4.5623e-06 3.91688e-06 3.35233e-06);
    }
    bottomWall
    {
        type            calculated;
        value           nonuniform List<scalar> 10(1.81102e-05 9.33584e-06 9.1199e-06 8.16643e-06 7.09835e-06 6.13816e-06 5.29862e-06 4.5623e-06 3.91688e-06 3.35232e-06);
    }
    frontAndBackPlanes
    {
        type            empty;
    }
    procBoundary1to0
    {
        type            processor;
        value           nonuniform List<scalar> 
20
(
1.31679e-06
1.733e-06
1.90518e-06
2.12432e-06
2.35536e-06
2.56532e-06
2.73845e-06
2.86889e-06
2.95541e-06
2.99841e-06
2.99841e-06
2.95541e-06
2.86889e-06
2.73845e-06
2.56532e-06
2.35536e-06
2.12432e-06
1.90518e-06
1.733e-06
1.31679e-06
)
;
    }
}


// ************************************************************************* //
