/*--------------------------------*- C++ -*----------------------------------*\
| =========                 |                                                 |
| \\      /  F ield         | OpenFOAM: The Open Source CFD Toolbox           |
|  \\    /   O peration     | Version:  2506                                  |
|   \\  /    A nd           | Website:  www.openfoam.com                      |
|    \\/     M anipulation  |                                                 |
\*---------------------------------------------------------------------------*/
FoamFile
{
    version     2.0;
    format      ascii;
    arch        "LSB;label=32;scalar=64";
    class       volVectorField;
    location    "0.2184";
    object      U;
}
// * * * * * * * * * * * * * * * * * * * * * * * * * * * * * * * * * * * * * //

dimensions      [0 1 -1 0 0 0 0];

internalField   nonuniform List<vector> 
200
(
(-0.000199 -0.000274971 0)
(3.51974e-05 -0.000172132 0)
(3.0519e-05 -0.000126451 0)
(3.06302e-05 -0.000105659 0)
(2.68558e-05 -8.99693e-05 0)
(2.2661e-05 -7.70763e-05 0)
(1.89642e-05 -6.60699e-05 0)
(1.58995e-05 -5.6575e-05 0)
(1.34017e-05 -4.83654e-05 0)
(1.1372e-05 -4.12557e-05 0)
(-0.000167831 -8.18346e-05 0)
(-3.06492e-06 -8.63718e-05 0)
(1.55895e-05 -6.67369e-05 0)
(2.77706e-05 -5.66961e-05 0)
(2.97662e-05 -4.94915e-05 0)
(2.74083e-05 -4.34671e-05 0)
(2.39191e-05 -3.80362e-05 0)
(2.04787e-05 -3.31081e-05 0)
(1.74553e-05 -2.8673e-05 0)
(1.49069e-05 -2.47128e-05 0)
(-0.000180954 -5.87992e-05 0)
(-1.10955e-05 -6.59092e-05 0)
(9.60001e-06 -5.52646e-05 0)
(2.54389e-05 -4.71523e-05 0)
(2.95256e-05 -4.10724e-05 0)
(2.82665e-05 -3.61395e-05 0)
(2.5267e-05 -3.17978e-05 0)
(2.19854e-05 -2.7866e-05 0)
(1.89575e-05 -2.42973e-05 0)
(1.63321e-05 -2.10707e-05 0)
(-0.000201199 -4.18327e-05 0)
(-1.57805e-05 -4.99817e-05 0)
(7.92835e-06 -4.49817e-05 0)
(2.57068e-05 -3.97233e-05 0)
(3.07403e-05 -3.51994e-05 0)
(2.99803e-05 -3.12838e-05 0)
(2.72037e-05 -2.7743e-05 0)
(2.39666e-05 -2.44839e-05 0)
(2.08814e-05 -2.14829e-05 0)
(1.81479e-05 -1.87322e-05 0)
(-0.000217575 -2.94714e-05 0)
(-1.99114e-05 -3.67162e-05 0)
(6.88597e-06 -3.47539e-05 0)
(2.64051e-05 -3.18532e-05 0)
(3.22652e-05 -2.89104e-05 0)
(3.18968e-05 -2.60853e-05 0)
(2.92775e-05 -2.33793e-05 0)
(2.60557e-05 -2.0802e-05 0)
(2.29037e-05 -1.83727e-05 0)
(2.00596e-05 -1.61068e-05 0)
(-0.000229851 -2.06512e-05 0)
(-2.36911e-05 -2.66019e-05 0)
(5.77464e-06 -2.59363e-05 0)
(2.68259e-05 -2.44755e-05 0)
(3.34903e-05 -2.27271e-05 0)
(3.35287e-05 -2.08375e-05 0)
(3.10873e-05 -1.88911e-05 0)
(2.79077e-05 -1.69532e-05 0)
(2.47178e-05 -1.50729e-05 0)
(2.17906e-05 -1.32836e-05 0)
(-0.000239098 -1.4226e-05 0)
(-2.69961e-05 -1.88094e-05 0)
(4.6825e-06 -1.86468e-05 0)
(2.69235e-05 -1.79723e-05 0)
(3.42909e-05 -1.70064e-05 0)
(3.47283e-05 -1.5817e-05 0)
(3.24865e-05 -1.44913e-05 0)
(2.93806e-05 -1.31077e-05 0)
(2.61874e-05 -1.17244e-05 0)
(2.32112e-05 -1.03814e-05 0)
(-0.000245637 -9.33171e-06 0)
(-2.95795e-05 -1.24593e-05 0)
(3.69391e-06 -1.25151e-05 0)
(2.68124e-05 -1.22531e-05 0)
(3.47384e-05 -1.1763e-05 0)
(3.55221e-05 -1.10643e-05 0)
(3.34698e-05 -1.02236e-05 0)
(3.04491e-05 -9.3071e-06 0)
(2.72747e-05 -8.36599e-06 0)
(2.42765e-05 -7.43605e-06 0)
(-0.000249798 -5.29687e-06 0)
(-3.13294e-05 -7.09712e-06 0)
(2.95045e-06 -7.19231e-06 0)
(2.66418e-05 -7.11659e-06 0)
(3.4954e-05 -6.89789e-06 0)
(3.59894e-05 -6.53836e-06 0)
(3.4083e-05 -6.07748e-06 0)
(3.1135e-05 -5.55771e-06 0)
(2.79849e-05 -5.01306e-06 0)
(2.49803e-05 -4.46781e-06 0)
(-0.00025182 -1.71786e-06 0)
(-3.22085e-05 -2.30414e-06 0)
(2.55444e-06 -2.34568e-06 0)
(2.6528e-05 -2.33296e-06 0)
(3.5036e-05 -2.27209e-06 0)
(3.62027e-05 -2.16209e-06 0)
(3.43752e-05 -2.01578e-06 0)
(3.14684e-05 -1.84767e-06 0)
(2.83342e-05 -1.66958e-06 0)
(2.53292e-05 -1.49005e-06 0)
(-0.00025182 1.71786e-06 0)
(-3.22085e-05 2.30414e-06 0)
(2.55444e-06 2.34568e-06 0)
(2.6528e-05 2.33296e-06 0)
(3.5036e-05 2.27209e-06 0)
(3.62027e-05 2.16208e-06 0)
(3.43752e-05 2.01578e-06 0)
(3.14684e-05 1.84767e-06 0)
(2.83342e-05 1.66957e-06 0)
(2.53292e-05 1.49004e-06 0)
(-0.000249798 5.29687e-06 0)
(-3.13294e-05 7.09712e-06 0)
(2.95045e-06 7.19231e-06 0)
(2.66418e-05 7.11659e-06 0)
(3.4954e-05 6.89789e-06 0)
(3.59894e-05 6.53836e-06 0)
(3.4083e-05 6.07747e-06 0)
(3.1135e-05 5.55771e-06 0)
(2.79849e-05 5.01306e-06 0)
(2.49803e-05 4.46781e-06 0)
(-0.000245637 9.33171e-06 0)
(-2.95795e-05 1.24593e-05 0)
(3.69391e-06 1.25151e-05 0)
(2.68124e-05 1.22531e-05 0)
(3.47384e-05 1.1763e-05 0)
(3.55221e-05 1.10643e-05 0)
(3.34698e-05 1.02236e-05 0)
(3.04491e-05 9.3071e-06 0)
(2.72747e-05 8.36599e-06 0)
(2.42765e-05 7.43605e-06 0)
(-0.000239098 1.4226e-05 0)
(-2.69961e-05 1.88094e-05 0)
(4.6825e-06 1.86468e-05 0)
(2.69235e-05 1.79723e-05 0)
(3.42908e-05 1.70064e-05 0)
(3.47283e-05 1.5817e-05 0)
(3.24865e-05 1.44913e-05 0)
(2.93806e-05 1.31077e-05 0)
(2.61874e-05 1.17244e-05 0)
(2.32112e-05 1.03814e-05 0)
(-0.000229851 2.06512e-05 0)
(-2.36911e-05 2.66019e-05 0)
(5.77464e-06 2.59363e-05 0)
(2.68259e-05 2.44755e-05 0)
(3.34903e-05 2.27271e-05 0)
(3.35287e-05 2.08375e-05 0)
(3.10873e-05 1.88911e-05 0)
(2.79077e-05 1.69532e-05 0)
(2.47178e-05 1.50729e-05 0)
(2.17906e-05 1.32836e-05 0)
(-0.000217575 2.94714e-05 0)
(-1.99114e-05 3.67162e-05 0)
(6.88596e-06 3.47539e-05 0)
(2.64051e-05 3.18532e-05 0)
(3.22652e-05 2.89104e-05 0)
(3.18968e-05 2.60853e-05 0)
(2.92775e-05 2.33793e-05 0)
(2.60556e-05 2.0802e-05 0)
(2.29037e-05 1.83727e-05 0)
(2.00596e-05 1.61068e-05 0)
(-0.000201199 4.18327e-05 0)
(-1.57805e-05 4.99817e-05 0)
(7.92835e-06 4.49817e-05 0)
(2.57068e-05 3.97233e-05 0)
(3.07403e-05 3.51994e-05 0)
(2.99803e-05 3.12838e-05 0)
(2.72037e-05 2.7743e-05 0)
(2.39666e-05 2.44839e-05 0)
(2.08814e-05 2.14829e-05 0)
(1.81479e-05 1.87322e-05 0)
(-0.000180954 5.87992e-05 0)
(-1.10955e-05 6.59092e-05 0)
(9.60001e-06 5.52646e-05 0)
(2.54389e-05 4.71523e-05 0)
(2.95256e-05 4.10724e-05 0)
(2.82665e-05 3.61395e-05 0)
(2.5267e-05 3.17978e-05 0)
(2.19854e-05 2.7866e-05 0)
(1.89575e-05 2.42973e-05 0)
(1.63321e-05 2.10707e-05 0)
(-0.000167831 8.18346e-05 0)
(-3.06492e-06 8.63718e-05 0)
(1.55895e-05 6.67369e-05 0)
(2.77706e-05 5.66961e-05 0)
(2.97662e-05 4.94915e-05 0)
(2.74083e-05 4.34671e-05 0)
(2.39191e-05 3.80362e-05 0)
(2.04787e-05 3.31081e-05 0)
(1.74553e-05 2.8673e-05 0)
(1.49069e-05 2.47128e-05 0)
(-0.000199 0.000274971 0)
(3.51974e-05 0.000172132 0)
(3.0519e-05 0.000126451 0)
(3.06302e-05 0.000105659 0)
(2.68558e-05 8.99693e-05 0)
(2.2661e-05 7.70763e-05 0)
(1.89642e-05 6.60699e-05 0)
(1.58995e-05 5.6575e-05 0)
(1.34017e-05 4.83654e-05 0)
(1.1372e-05 4.12557e-05 0)
)
;

boundaryField
{
    leftWall
    {
        type            noSlip;
    }
    rightWall
    {
        type            noSlip;
    }
    topWall
    {
        type            noSlip;
    }
    bottomWall
    {
        type            noSlip;
    }
    frontAndBackPlanes
    {
        type            empty;
    }
    procBoundary1to0
    {
        type            processor;
        value           nonuniform List<vector> 
20
(
(9.72098e-06 -3.50848e-05 0)
(1.27942e-05 -2.11928e-05 0)
(1.41149e-05 -1.81654e-05 0)
(1.5801e-05 -1.62241e-05 0)
(1.7582e-05 -1.40121e-05 0)
(1.9207e-05 -1.16049e-05 0)
(2.05535e-05 -9.10341e-06 0)
(2.1573e-05 -6.54029e-06 0)
(2.2252e-05 -3.93792e-06 0)
(2.25903e-05 -1.31476e-06 0)
(2.25903e-05 1.31475e-06 0)
(2.2252e-05 3.93791e-06 0)
(2.1573e-05 6.54029e-06 0)
(2.05535e-05 9.1034e-06 0)
(1.9207e-05 1.16048e-05 0)
(1.7582e-05 1.40121e-05 0)
(1.5801e-05 1.62241e-05 0)
(1.41149e-05 1.81654e-05 0)
(1.27942e-05 2.11928e-05 0)
(9.72097e-06 3.50849e-05 0)
)
;
    }
}


// ************************************************************************* //
