/*--------------------------------*- C++ -*----------------------------------*\
| =========                 |                                                 |
| \\      /  F ield         | OpenFOAM: The Open Source CFD Toolbox           |
|  \\    /   O peration     | Version:  2506                                  |
|   \\  /    A nd           | Website:  www.openfoam.com                      |
|    \\/     M anipulation  |                                                 |
\*---------------------------------------------------------------------------*/
FoamFile
{
    version     2.0;
    format      ascii;
    arch        "LSB;label=32;scalar=64";
    class       surfaceScalarField;
    location    "3.5517553936";
    object      phi;
}
// * * * * * * * * * * * * * * * * * * * * * * * * * * * * * * * * * * * * * //

dimensions      [1 0 -1 0 0 0 0];

oriented        oriented;

internalField   nonuniform List<scalar> 
370
(
2.04796e-06
-9.91803e-07
2.08546e-06
-8.7785e-07
2.10233e-06
-7.82007e-07
2.09861e-06
-7.04716e-07
2.07324e-06
-6.48416e-07
2.02349e-06
-6.16929e-07
1.95618e-06
-6.13082e-07
1.98105e-06
-6.94084e-07
2.5419e-06
-1.2781e-06
-2.62176e-06
1.69231e-06
-8.53595e-07
1.78381e-06
-7.45787e-07
1.85856e-06
-6.57002e-07
1.91813e-06
-5.87229e-07
1.96391e-06
-5.387e-07
1.99814e-06
-5.16087e-07
2.03563e-06
-5.3501e-07
2.11073e-06
-6.72707e-07
2.02186e-06
-1.11262e-06
-1.64792e-06
1.39016e-06
-7.33471e-07
1.51441e-06
-6.35243e-07
1.62545e-06
-5.56027e-07
1.72395e-06
-4.95615e-07
1.8103e-06
-4.55821e-07
1.88507e-06
-4.41461e-07
1.94824e-06
-4.6763e-07
1.96753e-06
-5.79617e-07
1.7841e-06
-8.35407e-07
-1.09138e-06
1.15051e-06
-6.22983e-07
1.29454e-06
-5.36915e-07
1.42791e-06
-4.68738e-07
1.55014e-06
-4.18163e-07
1.6604e-06
-3.86465e-07
1.75677e-06
-3.77262e-07
1.83193e-06
-4.00264e-07
1.85442e-06
-4.76885e-07
1.74934e-06
-6.22798e-07
-7.35915e-07
9.5202e-07
-5.17354e-07
1.10814e-06
-4.44975e-07
1.25525e-06
-3.88455e-07
1.39187e-06
-3.47458e-07
1.51616e-06
-3.22664e-07
1.62483e-06
-3.16122e-07
1.70969e-06
-3.32635e-07
1.74881e-06
-3.80098e-07
1.70182e-06
-4.56993e-07
-4.92218e-07
7.86858e-07
-4.13834e-07
9.50189e-07
-3.55842e-07
1.10549e-06
-3.1104e-07
1.25057e-06
-2.79047e-07
1.38293e-06
-2.60034e-07
1.49893e-06
-2.54734e-07
1.59165e-06
-2.64657e-07
1.64704e-06
-2.90825e-07
1.64376e-06
-3.25763e-07
-3.23365e-07
6.53417e-07
-3.10849e-07
8.20843e-07
-2.67444e-07
9.80818e-07
-2.34158e-07
1.1307e-06
-2.10609e-07
1.26775e-06
-1.96641e-07
1.3886e-06
-1.92188e-07
1.48819e-06
-1.97043e-07
1.55844e-06
-2.09499e-07
1.58951e-06
-2.21702e-07
-2.05261e-07
5.52132e-07
-2.07631e-07
7.21734e-07
-1.7878e-07
8.84231e-07
-1.56758e-07
1.03676e-06
-1.41248e-07
1.17662e-06
-1.31992e-07
1.30094e-06
-1.28633e-07
1.40639e-06
-1.30431e-07
1.4889e-06
-1.353e-07
1.54498e-06
-1.37329e-07
-1.20299e-07
4.839e-07
-1.03967e-07
6.54558e-07
-8.95753e-08
8.18319e-07
-7.86168e-08
9.72246e-07
-7.09126e-08
1.11373e-06
-6.62833e-08
1.24041e-06
-6.44543e-08
1.35014e-06
-6.48869e-08
1.44125e-06
-6.62967e-08
1.51348e-06
-6.55838e-08
-5.53996e-08
4.49547e-07
2.96269e-12
6.20622e-07
2.89865e-12
7.84898e-07
2.80005e-12
9.39423e-07
2.69085e-12
1.08167e-06
2.58649e-12
1.20956e-06
2.50117e-12
1.32154e-06
2.4415e-12
1.41706e-06
2.41523e-12
1.4972e-06
2.42772e-12
2.42281e-12
4.49547e-07
1.03973e-07
6.20621e-07
8.95811e-08
7.84898e-07
7.86224e-08
9.39423e-07
7.09179e-08
1.08167e-06
6.62884e-08
1.20956e-06
6.44593e-08
1.32154e-06
6.48918e-08
1.41706e-06
6.63015e-08
1.4972e-06
6.55886e-08
5.54043e-08
4.839e-07
2.07636e-07
6.54558e-07
1.78785e-07
8.18319e-07
1.56763e-07
9.72245e-07
1.41253e-07
1.11373e-06
1.31997e-07
1.24041e-06
1.28638e-07
1.35014e-06
1.30436e-07
1.44125e-06
1.35305e-07
1.51348e-06
1.37334e-07
1.20303e-07
5.52131e-07
3.10855e-07
7.21733e-07
2.67449e-07
8.84231e-07
2.34164e-07
1.03676e-06
2.10614e-07
1.17662e-06
1.96646e-07
1.30094e-06
1.92193e-07
1.40639e-06
1.97048e-07
1.4889e-06
2.09503e-07
1.54498e-06
2.21706e-07
2.05265e-07
6.53417e-07
4.1384e-07
8.20842e-07
3.55847e-07
9.80817e-07
3.11045e-07
1.13069e-06
2.79053e-07
1.26775e-06
2.60039e-07
1.3886e-06
2.54739e-07
1.48819e-06
2.64661e-07
1.55844e-06
2.90829e-07
1.58951e-06
3.25767e-07
3.23368e-07
7.86857e-07
5.1736e-07
9.50188e-07
4.4498e-07
1.10549e-06
3.88461e-07
1.25057e-06
3.47463e-07
1.38293e-06
3.22669e-07
1.49893e-06
3.16127e-07
1.59165e-06
3.32639e-07
1.64704e-06
3.80102e-07
1.64376e-06
4.56997e-07
4.92221e-07
9.52019e-07
6.22988e-07
1.10814e-06
5.36921e-07
1.25525e-06
4.68743e-07
1.39187e-06
4.18168e-07
1.51616e-06
3.86469e-07
1.62482e-06
3.77267e-07
1.70969e-06
4.00268e-07
1.74881e-06
4.76888e-07
1.70182e-06
6.22801e-07
7.35918e-07
1.15051e-06
7.33477e-07
1.29454e-06
6.35248e-07
1.42791e-06
5.56032e-07
1.55014e-06
4.9562e-07
1.6604e-06
4.55825e-07
1.75677e-06
4.41466e-07
1.83193e-06
4.67634e-07
1.85441e-06
5.79621e-07
1.74934e-06
8.3541e-07
1.09138e-06
1.39015e-06
8.536e-07
1.51441e-06
7.45792e-07
1.62545e-06
6.57007e-07
1.72395e-06
5.87233e-07
1.8103e-06
5.38704e-07
1.88507e-06
5.16091e-07
1.94824e-06
5.35014e-07
1.96753e-06
6.7271e-07
1.7841e-06
1.11263e-06
1.64792e-06
1.69231e-06
9.91808e-07
1.78381e-06
8.77855e-07
1.85856e-06
7.82011e-07
1.91813e-06
7.04721e-07
1.96391e-06
6.4842e-07
1.99814e-06
6.16932e-07
2.03563e-06
6.13085e-07
2.11073e-06
6.94086e-07
2.02186e-06
1.27811e-06
2.62176e-06
2.04796e-06
2.08546e-06
2.10233e-06
2.09861e-06
2.07324e-06
2.02349e-06
1.95618e-06
1.98105e-06
2.5419e-06
)
;

boundaryField
{
    leftWall
    {
        type            calculated;
        value           nonuniform List<scalar> 0();
    }
    rightWall
    {
        type            calculated;
        value           nonuniform List<scalar> 
20
(
2.58981e-06
1.09754e-06
1.2967e-06
1.47725e-06
1.55277e-06
1.57859e-06
1.58216e-06
1.57601e-06
1.56804e-06
1.56298e-06
1.56298e-06
1.56804e-06
1.57601e-06
1.58216e-06
1.57859e-06
1.55277e-06
1.47725e-06
1.2967e-06
1.09754e-06
2.58981e-06
)
;
    }
    topWall
    {
        type            calculated;
        value           nonuniform List<scalar> 10(1.15666e-06 1.03934e-06 9.39863e-07 8.60346e-07 8.04316e-07 7.77097e-07 7.71598e-07 7.4116e-07 7.67145e-07 2.58981e-06);
    }
    bottomWall
    {
        type            calculated;
        value           nonuniform List<scalar> 10(1.15666e-06 1.03934e-06 9.39868e-07 8.6035e-07 8.0432e-07 7.77101e-07 7.71601e-07 7.41162e-07 7.67147e-07 2.58981e-06);
    }
    frontAndBackPlanes
    {
        type            empty;
    }
    procBoundary0to1
    {
        type            processor;
        value           nonuniform List<scalar> 
20
(
-1.98823e-06
-1.58223e-06
-1.25203e-06
-9.96456e-07
-7.88591e-07
-6.17959e-07
-4.8149e-07
-3.7866e-07
-3.09727e-07
-2.75118e-07
-2.75118e-07
-3.09726e-07
-3.78659e-07
-4.81489e-07
-6.17958e-07
-7.8859e-07
-9.96455e-07
-1.25203e-06
-1.58223e-06
-1.98823e-06
)
;
    }
}


// ************************************************************************* //
