/*--------------------------------*- C++ -*----------------------------------*\
| =========                 |                                                 |
| \\      /  F ield         | OpenFOAM: The Open Source CFD Toolbox           |
|  \\    /   O peration     | Version:  2506                                  |
|   \\  /    A nd           | Website:  www.openfoam.com                      |
|    \\/     M anipulation  |                                                 |
\*---------------------------------------------------------------------------*/
FoamFile
{
    version     2.0;
    format      ascii;
    arch        "LSB;label=32;scalar=64";
    class       volScalarField;
    location    "3.5517553936";
    object      T;
}
// * * * * * * * * * * * * * * * * * * * * * * * * * * * * * * * * * * * * * //

dimensions      [0 0 0 1 0 0 0];

internalField   nonuniform List<scalar> 
200
(
273.867
273.71
273.579
273.469
273.377
273.299
273.231
273.171
273.11
273.031
274.068
273.885
273.732
273.603
273.494
273.401
273.321
273.252
273.187
273.109
274.181
273.987
273.823
273.685
273.567
273.467
273.382
273.309
273.241
273.161
274.267
274.066
273.895
273.75
273.627
273.523
273.434
273.357
273.287
273.203
274.336
274.13
273.954
273.805
273.678
273.57
273.478
273.399
273.326
273.237
274.391
274.182
274.003
273.85
273.72
273.61
273.516
273.435
273.36
273.266
274.434
274.223
274.042
273.887
273.755
273.643
273.547
273.464
273.387
273.289
274.466
274.253
274.071
273.914
273.781
273.667
273.57
273.486
273.407
273.307
274.487
274.273
274.09
273.933
273.798
273.684
273.586
273.501
273.421
273.319
274.497
274.283
274.1
273.942
273.807
273.692
273.594
273.508
273.427
273.325
274.497
274.283
274.1
273.942
273.807
273.692
273.594
273.508
273.427
273.325
274.487
274.273
274.09
273.933
273.798
273.684
273.586
273.501
273.421
273.319
274.466
274.253
274.071
273.914
273.781
273.667
273.57
273.486
273.407
273.307
274.434
274.223
274.042
273.887
273.755
273.643
273.547
273.464
273.387
273.289
274.391
274.182
274.003
273.85
273.72
273.61
273.516
273.435
273.36
273.266
274.336
274.13
273.954
273.805
273.678
273.57
273.478
273.399
273.326
273.237
274.267
274.066
273.895
273.75
273.627
273.523
273.434
273.357
273.287
273.203
274.181
273.987
273.823
273.685
273.567
273.467
273.382
273.309
273.241
273.161
274.068
273.885
273.732
273.603
273.494
273.401
273.321
273.252
273.187
273.109
273.867
273.71
273.579
273.469
273.377
273.299
273.231
273.171
273.11
273.031
)
;

boundaryField
{
    leftWall
    {
        type            fixedValue;
        value           nonuniform List<scalar> 0();
    }
    rightWall
    {
        type            fixedValue;
        value           uniform 273;
    }
    topWall
    {
        type            fixedValue;
        value           uniform 273;
    }
    bottomWall
    {
        type            fixedValue;
        value           uniform 273;
    }
    frontAndBackPlanes
    {
        type            empty;
    }
    procBoundary0to1
    {
        type            processor;
        value           nonuniform List<scalar> 
20
(
274.056
274.285
274.412
274.505
274.578
274.636
274.681
274.713
274.734
274.745
274.745
274.734
274.713
274.681
274.636
274.578
274.505
274.412
274.285
274.056
)
;
    }
}


// ************************************************************************* //
