/*--------------------------------*- C++ -*----------------------------------*\
| =========                 |                                                 |
| \\      /  F ield         | OpenFOAM: The Open Source CFD Toolbox           |
|  \\    /   O peration     | Version:  2506                                  |
|   \\  /    A nd           | Website:  www.openfoam.com                      |
|    \\/     M anipulation  |                                                 |
\*---------------------------------------------------------------------------*/
FoamFile
{
    version     2.0;
    format      ascii;
    arch        "LSB;label=32;scalar=64";
    class       volScalarField;
    location    "0.989945";
    object      alphat;
}
// * * * * * * * * * * * * * * * * * * * * * * * * * * * * * * * * * * * * * //

dimensions      [1 -1 -1 0 0 0 0];

internalField   nonuniform List<scalar> 
400
(
0.131622
0.234686
0.280465
0.308248
0.327642
0.34182
0.352165
0.35941
0.364007
0.366236
0.36624
0.364018
0.35943
0.352193
0.341859
0.327694
0.30832
0.280567
0.234827
0.131884
0.234367
2.02522
2.85251
3.28865
3.56043
3.74269
3.86743
3.95099
4.00251
4.02713
4.02719
4.00269
3.95129
3.86788
3.74332
3.56129
3.28981
2.85407
2.02715
0.234831
0.280005
2.85105
4.50009
5.45846
6.06492
6.46858
6.7415
6.92222
7.03268
7.08517
7.08531
7.03309
6.92294
6.74256
6.47003
6.06683
5.46089
4.50304
2.85409
0.280573
0.307706
3.28622
5.45706
6.81037
7.69438
8.29016
8.69455
8.96247
9.12613
9.20387
9.20408
9.12677
8.96356
8.69614
8.2923
7.69714
6.81376
5.46093
3.28986
0.308327
0.327044
3.55736
6.06244
7.69312
8.78652
9.5344
10.0462
10.3867
10.5952
10.6944
10.6947
10.5961
10.3881
10.0482
9.53709
8.78991
7.69718
6.06691
3.56136
0.327703
0.341183
3.73916
6.46527
8.28788
9.53329
10.3961
10.9914
11.3896
11.6343
11.7509
11.7512
11.6353
11.3913
10.9937
10.3992
9.53715
8.29241
6.47015
3.74341
0.341869
0.351499
3.86357
6.73757
8.69146
10.0441
10.9904
11.6479
12.09
12.3624
12.4925
12.4928
12.3635
12.0918
11.6505
10.9938
10.0483
8.69631
6.74272
3.86799
0.352204
0.358724
3.94689
6.91782
8.95875
10.384
11.3879
12.0891
12.5624
12.855
12.9948
12.9952
12.8561
12.5644
12.0919
11.3915
10.3884
8.96382
6.92316
3.95142
0.359443
0.363306
3.99825
7.02794
9.12195
10.5919
11.632
12.361
12.8543
13.1597
13.3059
13.3063
13.161
12.8563
12.3639
11.6357
10.5965
9.12715
7.03339
4.00285
0.364033
0.365526
4.02276
7.08021
9.19935
10.6907
11.7481
12.4905
12.9936
13.3054
13.4547
13.4551
13.3066
12.9957
12.4935
11.7519
10.6953
9.20463
7.08571
4.02739
0.366258
0.365526
4.02276
7.08021
9.19935
10.6907
11.7481
12.4905
12.9936
13.3054
13.4547
13.4551
13.3066
12.9957
12.4935
11.7519
10.6953
9.20463
7.08571
4.02739
0.366258
0.363306
3.99825
7.02794
9.12195
10.5919
11.632
12.361
12.8543
13.1597
13.3059
13.3063
13.161
12.8563
12.3639
11.6357
10.5965
9.12715
7.03339
4.00285
0.364033
0.358724
3.94689
6.91782
8.95875
10.384
11.3879
12.0891
12.5624
12.855
12.9948
12.9952
12.8561
12.5644
12.0919
11.3915
10.3884
8.96382
6.92316
3.95142
0.359443
0.351499
3.86357
6.73757
8.69146
10.0441
10.9904
11.6479
12.09
12.3624
12.4925
12.4929
12.3635
12.0918
11.6505
10.9938
10.0483
8.69631
6.74272
3.86799
0.352204
0.341183
3.73916
6.46527
8.28788
9.53329
10.3961
10.9914
11.3896
11.6343
11.7509
11.7512
11.6353
11.3913
10.9937
10.3992
9.53715
8.29241
6.47015
3.74341
0.341869
0.327044
3.55736
6.06244
7.69312
8.78652
9.5344
10.0462
10.3867
10.5952
10.6944
10.6947
10.5961
10.3881
10.0482
9.53709
8.78991
7.69718
6.06691
3.56136
0.327703
0.307706
3.28622
5.45706
6.81037
7.69438
8.29016
8.69455
8.96247
9.12613
9.20387
9.20408
9.12677
8.96356
8.69614
8.2923
7.69714
6.81376
5.46093
3.28986
0.308327
0.280005
2.85105
4.50009
5.45846
6.06492
6.46858
6.7415
6.92222
7.03268
7.08517
7.08531
7.03309
6.92294
6.74256
6.47003
6.06683
5.46089
4.50304
2.85409
0.280573
0.234367
2.02522
2.85251
3.28865
3.56043
3.74269
3.86743
3.95099
4.00251
4.02713
4.02719
4.00269
3.95129
3.86788
3.74332
3.56129
3.28981
2.85407
2.02715
0.234831
0.131622
0.234686
0.280465
0.308248
0.327642
0.34182
0.352165
0.35941
0.364007
0.366236
0.36624
0.364018
0.35943
0.352193
0.341859
0.327694
0.30832
0.280567
0.234827
0.131884
)
;

boundaryField
{
    leftWall
    {
        type            compressible::alphatWallFunction;
        value           nonuniform List<scalar> 
20
(
0.0266524
0.0410061
0.0469248
0.05014
0.0521354
0.0534345
0.0542863
0.0548311
0.0551534
0.0553031
0.0553031
0.0551534
0.0548311
0.0542863
0.0534345
0.0521354
0.05014
0.0469248
0.0410061
0.0266524
)
;
    }
    rightWall
    {
        type            compressible::alphatWallFunction;
        value           nonuniform List<scalar> 
20
(
0.0318437
0.0493606
0.0565564
0.0604573
0.0628756
0.0644492
0.0654806
0.06614
0.0665302
0.0667113
0.0667113
0.0665302
0.06614
0.0654806
0.0644492
0.0628756
0.0604573
0.0565564
0.0493606
0.0318437
)
;
    }
    topWall
    {
        type            compressible::alphatWallFunction;
        value           nonuniform List<scalar> 
20
(
0.0318706
0.0493748
0.0565628
0.0604612
0.062878
0.0644506
0.0654814
0.0661404
0.0665304
0.0667113
0.0667111
0.0665299
0.0661396
0.0654801
0.0644487
0.062875
0.0604567
0.056556
0.0493604
0.0318437
)
;
    }
    bottomWall
    {
        type            compressible::alphatWallFunction;
        value           nonuniform List<scalar> 
20
(
0.0318706
0.0493748
0.0565628
0.0604612
0.062878
0.0644506
0.0654814
0.0661404
0.0665304
0.0667113
0.0667111
0.0665299
0.0661396
0.0654801
0.0644487
0.062875
0.0604567
0.056556
0.0493604
0.0318437
)
;
    }
    frontAndBackPlanes
    {
        type            empty;
    }
}


// ************************************************************************* //
