/*--------------------------------*- C++ -*----------------------------------*\
| =========                 |                                                 |
| \\      /  F ield         | OpenFOAM: The Open Source CFD Toolbox           |
|  \\    /   O peration     | Version:  2506                                  |
|   \\  /    A nd           | Website:  www.openfoam.com                      |
|    \\/     M anipulation  |                                                 |
\*---------------------------------------------------------------------------*/
FoamFile
{
    version     2.0;
    format      ascii;
    arch        "LSB;label=32;scalar=64";
    class       volScalarField;
    location    "0.989945";
    object      epsilon;
}
// * * * * * * * * * * * * * * * * * * * * * * * * * * * * * * * * * * * * * //

dimensions      [0 2 -3 0 0 0 0];

internalField   nonuniform List<scalar> 
400
(
0.0320712
0.11966
0.181106
0.220473
0.246195
0.262914
0.273538
0.280033
0.283704
0.285351
0.285348
0.283696
0.280019
0.273519
0.262888
0.246161
0.220427
0.181045
0.119561
0.0319987
0.119749
0.0951729
0.109783
0.12334
0.133491
0.140596
0.145356
0.148391
0.150165
0.150979
0.150979
0.150165
0.14839
0.145354
0.140592
0.133482
0.123325
0.109755
0.0951184
0.119562
0.181239
0.109804
0.110641
0.117108
0.123302
0.128165
0.131661
0.134001
0.135416
0.136078
0.136078
0.135416
0.134002
0.131661
0.128163
0.123297
0.117097
0.110618
0.109755
0.181048
0.220633
0.123372
0.117118
0.119914
0.12403
0.127729
0.130594
0.132606
0.133862
0.134462
0.134462
0.133863
0.132607
0.130594
0.127728
0.124026
0.119904
0.117097
0.123325
0.220431
0.246378
0.133529
0.123316
0.124034
0.126927
0.129919
0.132395
0.134207
0.135369
0.135932
0.135933
0.13537
0.134208
0.132396
0.129919
0.126924
0.124026
0.123296
0.133482
0.246165
0.263111
0.140639
0.128182
0.127736
0.129921
0.132489
0.134725
0.136412
0.137515
0.138056
0.138057
0.137517
0.136414
0.134727
0.13249
0.129919
0.127728
0.128163
0.140592
0.26289
0.273746
0.145401
0.13168
0.130602
0.132398
0.134726
0.136823
0.138436
0.139505
0.140033
0.140034
0.139507
0.138439
0.136825
0.134727
0.132396
0.130595
0.131661
0.145353
0.273519
0.280248
0.148437
0.13402
0.132614
0.13421
0.136413
0.138436
0.140011
0.141061
0.141583
0.141583
0.141063
0.140013
0.138439
0.136414
0.134209
0.132607
0.134002
0.148389
0.280017
0.283924
0.150211
0.135435
0.13387
0.135372
0.137516
0.139505
0.141061
0.142103
0.142622
0.142623
0.142105
0.141064
0.139507
0.137518
0.135371
0.133864
0.135416
0.150164
0.283692
0.285575
0.151025
0.136097
0.13447
0.135935
0.138056
0.140032
0.141582
0.142621
0.143139
0.14314
0.142623
0.141585
0.140035
0.138058
0.135934
0.134463
0.136079
0.150978
0.285341
0.285575
0.151025
0.136097
0.13447
0.135935
0.138056
0.140032
0.141582
0.142621
0.143139
0.14314
0.142623
0.141585
0.140035
0.138058
0.135934
0.134463
0.136079
0.150978
0.285341
0.283924
0.150211
0.135435
0.13387
0.135372
0.137516
0.139505
0.141061
0.142103
0.142622
0.142623
0.142105
0.141064
0.139507
0.137518
0.135371
0.133864
0.135416
0.150164
0.283692
0.280248
0.148437
0.13402
0.132614
0.13421
0.136413
0.138436
0.140011
0.141061
0.141583
0.141583
0.141063
0.140013
0.138439
0.136414
0.134209
0.132607
0.134002
0.148389
0.280017
0.273746
0.145401
0.13168
0.130602
0.132398
0.134726
0.136823
0.138436
0.139505
0.140033
0.140034
0.139507
0.138439
0.136825
0.134727
0.132396
0.130595
0.131661
0.145353
0.273519
0.263111
0.140639
0.128182
0.127736
0.129921
0.132489
0.134725
0.136412
0.137515
0.138056
0.138057
0.137517
0.136414
0.134727
0.13249
0.129919
0.127728
0.128163
0.140592
0.26289
0.246378
0.133529
0.123316
0.124035
0.126927
0.129919
0.132395
0.134207
0.135369
0.135932
0.135933
0.13537
0.134208
0.132396
0.129919
0.126924
0.124026
0.123296
0.133482
0.246165
0.220633
0.123372
0.117118
0.119914
0.12403
0.127729
0.130594
0.132606
0.133862
0.134462
0.134462
0.133863
0.132607
0.130594
0.127728
0.124026
0.119904
0.117097
0.123325
0.220431
0.181239
0.109804
0.110641
0.117108
0.123302
0.128165
0.131661
0.134001
0.135416
0.136078
0.136078
0.135416
0.134002
0.131661
0.128163
0.123297
0.117097
0.110618
0.109755
0.181048
0.119749
0.0951729
0.109783
0.12334
0.133491
0.140596
0.145356
0.148391
0.150165
0.150979
0.150979
0.150165
0.14839
0.145354
0.140592
0.133482
0.123325
0.109755
0.0951184
0.119562
0.0320712
0.11966
0.181106
0.220473
0.246195
0.262914
0.273538
0.280033
0.283704
0.285351
0.285348
0.283696
0.280019
0.273519
0.262888
0.246161
0.220427
0.181045
0.119561
0.0319987
)
;

boundaryField
{
    leftWall
    {
        type            epsilonWallFunction;
        blending        stepwise;
        value           nonuniform List<scalar> 
20
(
0.0320712
0.119749
0.181239
0.220633
0.246378
0.263111
0.273746
0.280248
0.283924
0.285575
0.285575
0.283924
0.280248
0.273746
0.263111
0.246378
0.220633
0.181239
0.119749
0.0320712
)
;
    }
    rightWall
    {
        type            epsilonWallFunction;
        blending        stepwise;
        value           nonuniform List<scalar> 
20
(
0.0319987
0.119562
0.181048
0.220431
0.246165
0.26289
0.273519
0.280017
0.283692
0.285341
0.285341
0.283692
0.280017
0.273519
0.26289
0.246165
0.220431
0.181048
0.119562
0.0319987
)
;
    }
    topWall
    {
        type            epsilonWallFunction;
        blending        stepwise;
        value           nonuniform List<scalar> 
20
(
0.0320712
0.11966
0.181106
0.220473
0.246195
0.262914
0.273538
0.280033
0.283704
0.285351
0.285348
0.283696
0.280019
0.273519
0.262888
0.246161
0.220427
0.181045
0.119561
0.0319987
)
;
    }
    bottomWall
    {
        type            epsilonWallFunction;
        blending        stepwise;
        value           nonuniform List<scalar> 
20
(
0.0320712
0.11966
0.181106
0.220473
0.246195
0.262914
0.273538
0.280033
0.283704
0.285351
0.285348
0.283696
0.280019
0.273519
0.262888
0.246161
0.220427
0.181045
0.119561
0.0319987
)
;
    }
    frontAndBackPlanes
    {
        type            empty;
    }
}


// ************************************************************************* //
