/*--------------------------------*- C++ -*----------------------------------*\
| =========                 |                                                 |
| \\      /  F ield         | OpenFOAM: The Open Source CFD Toolbox           |
|  \\    /   O peration     | Version:  2506                                  |
|   \\  /    A nd           | Website:  www.openfoam.com                      |
|    \\/     M anipulation  |                                                 |
\*---------------------------------------------------------------------------*/
FoamFile
{
    version     2.0;
    format      ascii;
    arch        "LSB;label=32;scalar=64";
    class       volScalarField;
    location    "0.989945";
    object      k;
}
// * * * * * * * * * * * * * * * * * * * * * * * * * * * * * * * * * * * * * //

dimensions      [0 2 -2 0 0 0 0];

internalField   nonuniform List<scalar> 
400
(
0.00685541
0.0176616
0.0237471
0.0274655
0.0299208
0.0315807
0.0326954
0.0334193
0.0338517
0.0340534
0.0340532
0.0338512
0.0334184
0.032694
0.0315786
0.0299177
0.0274611
0.0237408
0.0176503
0.006843
0.0176701
0.0462741
0.0589692
0.0671043
0.0726326
0.0764207
0.0789851
0.080661
0.0816677
0.0821391
0.082139
0.0816672
0.08066
0.0789833
0.0764176
0.0726273
0.0670958
0.058956
0.0462551
0.0176505
0.0237585
0.0589737
0.0743573
0.0842422
0.0911092
0.0959247
0.0992501
0.101459
0.102801
0.103435
0.103435
0.102801
0.101458
0.0992492
0.0959225
0.0911048
0.0842343
0.0743447
0.0589563
0.0237412
0.0274788
0.0671129
0.0842463
0.0952198
0.102925
0.108411
0.112257
0.114845
0.116434
0.117188
0.117188
0.116434
0.114845
0.112257
0.108409
0.102921
0.0952126
0.0842345
0.0670963
0.0274616
0.0299358
0.072644
0.0911165
0.102928
0.111266
0.117256
0.121497
0.124378
0.12616
0.127011
0.127011
0.126161
0.124379
0.121498
0.117255
0.111263
0.102922
0.0911052
0.0726279
0.0299183
0.031597
0.0764342
0.095934
0.108416
0.117258
0.123645
0.128199
0.131311
0.133246
0.134173
0.134174
0.133247
0.131312
0.1282
0.123645
0.117255
0.10841
0.0959231
0.0764183
0.0315792
0.0327127
0.0789998
0.0992606
0.112263
0.121501
0.1282
0.132996
0.136289
0.138343
0.13933
0.13933
0.138344
0.13629
0.132998
0.1282
0.121498
0.112257
0.09925
0.078984
0.0326945
0.0334371
0.0806765
0.10147
0.114851
0.124382
0.131313
0.136289
0.139714
0.141857
0.142888
0.142888
0.141859
0.139716
0.13629
0.131313
0.12438
0.114846
0.101459
0.0806607
0.0334188
0.0338699
0.0816836
0.102813
0.116441
0.126164
0.133248
0.138344
0.141857
0.144059
0.145118
0.145118
0.14406
0.141859
0.138345
0.133249
0.126162
0.116435
0.102802
0.0816679
0.0338515
0.0340718
0.0821553
0.103446
0.117195
0.127014
0.134175
0.13933
0.142887
0.145117
0.146191
0.146192
0.145119
0.142889
0.139331
0.134175
0.127013
0.11719
0.103436
0.0821396
0.0340533
0.0340718
0.0821553
0.103446
0.117195
0.127014
0.134175
0.13933
0.142887
0.145117
0.146191
0.146192
0.145119
0.142889
0.139331
0.134175
0.127013
0.11719
0.103436
0.0821396
0.0340533
0.0338699
0.0816836
0.102813
0.116441
0.126164
0.133248
0.138344
0.141857
0.144059
0.145118
0.145118
0.14406
0.141859
0.138345
0.133249
0.126162
0.116435
0.102802
0.0816679
0.0338515
0.0334371
0.0806765
0.10147
0.114851
0.124382
0.131313
0.136289
0.139714
0.141857
0.142888
0.142888
0.141859
0.139716
0.13629
0.131313
0.12438
0.114846
0.101459
0.0806607
0.0334188
0.0327127
0.0789998
0.0992606
0.112263
0.121501
0.1282
0.132996
0.136289
0.138343
0.13933
0.13933
0.138344
0.13629
0.132998
0.1282
0.121498
0.112257
0.09925
0.078984
0.0326945
0.031597
0.0764342
0.095934
0.108416
0.117258
0.123645
0.128199
0.131311
0.133246
0.134173
0.134174
0.133247
0.131312
0.1282
0.123645
0.117255
0.10841
0.0959231
0.0764183
0.0315792
0.0299358
0.072644
0.0911165
0.102928
0.111266
0.117256
0.121497
0.124378
0.12616
0.127011
0.127011
0.126161
0.124379
0.121498
0.117255
0.111263
0.102922
0.0911052
0.0726279
0.0299183
0.0274788
0.0671129
0.0842463
0.0952198
0.102925
0.108411
0.112257
0.114845
0.116434
0.117188
0.117188
0.116434
0.114845
0.112257
0.108409
0.102921
0.0952126
0.0842345
0.0670963
0.0274616
0.0237585
0.0589737
0.0743573
0.0842422
0.0911092
0.0959247
0.0992501
0.101459
0.102801
0.103435
0.103435
0.102801
0.101458
0.0992492
0.0959225
0.0911048
0.0842343
0.0743447
0.0589563
0.0237412
0.0176701
0.0462741
0.0589692
0.0671043
0.0726326
0.0764207
0.0789851
0.080661
0.0816677
0.0821391
0.082139
0.0816672
0.08066
0.0789833
0.0764176
0.0726273
0.0670958
0.058956
0.0462551
0.0176505
0.00685541
0.0176616
0.0237471
0.0274655
0.0299208
0.0315807
0.0326954
0.0334193
0.0338517
0.0340534
0.0340532
0.0338512
0.0334184
0.032694
0.0315786
0.0299177
0.0274611
0.0237408
0.0176503
0.006843
)
;

boundaryField
{
    leftWall
    {
        type            kqRWallFunction;
        value           nonuniform List<scalar> 
20
(
0.00685541
0.0176701
0.0237585
0.0274788
0.0299358
0.031597
0.0327127
0.0334371
0.0338699
0.0340718
0.0340718
0.0338699
0.0334371
0.0327127
0.031597
0.0299358
0.0274788
0.0237585
0.0176701
0.00685541
)
;
    }
    rightWall
    {
        type            kqRWallFunction;
        value           nonuniform List<scalar> 
20
(
0.006843
0.0176505
0.0237412
0.0274616
0.0299183
0.0315792
0.0326945
0.0334188
0.0338515
0.0340533
0.0340533
0.0338515
0.0334188
0.0326945
0.0315792
0.0299183
0.0274616
0.0237412
0.0176505
0.006843
)
;
    }
    topWall
    {
        type            kqRWallFunction;
        value           nonuniform List<scalar> 
20
(
0.00685541
0.0176616
0.0237471
0.0274655
0.0299208
0.0315807
0.0326954
0.0334193
0.0338517
0.0340534
0.0340532
0.0338512
0.0334184
0.032694
0.0315786
0.0299177
0.0274611
0.0237408
0.0176503
0.006843
)
;
    }
    bottomWall
    {
        type            kqRWallFunction;
        value           nonuniform List<scalar> 
20
(
0.00685541
0.0176616
0.0237471
0.0274655
0.0299208
0.0315807
0.0326954
0.0334193
0.0338517
0.0340534
0.0340532
0.0338512
0.0334184
0.032694
0.0315786
0.0299177
0.0274611
0.0237408
0.0176503
0.006843
)
;
    }
    frontAndBackPlanes
    {
        type            empty;
    }
}


// ************************************************************************* //
