/*--------------------------------*- C++ -*----------------------------------*\
| =========                 |                                                 |
| \\      /  F ield         | OpenFOAM: The Open Source CFD Toolbox           |
|  \\    /   O peration     | Version:  2506                                  |
|   \\  /    A nd           | Website:  www.openfoam.com                      |
|    \\/     M anipulation  |                                                 |
\*---------------------------------------------------------------------------*/
FoamFile
{
    version     2.0;
    format      ascii;
    arch        "LSB;label=32;scalar=64";
    class       surfaceScalarField;
    location    "0.989945";
    object      phi;
}
// * * * * * * * * * * * * * * * * * * * * * * * * * * * * * * * * * * * * * //

dimensions      [1 0 -1 0 0 0 0];

oriented        oriented;

internalField   nonuniform List<scalar> 
760
(
-9.93925e-06
-1.42993e-05
-2.34174e-06
-8.7809e-06
6.15214e-07
-6.36322e-06
2.22097e-06
-5.56835e-06
3.09485e-06
-4.81635e-06
3.52297e-06
-4.15596e-06
3.68065e-06
-3.59948e-06
3.67426e-06
-3.12978e-06
3.56832e-06
-2.73167e-06
3.4035e-06
-2.39312e-06
3.20597e-06
-2.104e-06
2.99228e-06
-1.85616e-06
2.77254e-06
-1.64372e-06
2.5526e-06
-1.46317e-06
2.33572e-06
-1.3135e-06
2.1229e-06
-1.19494e-06
1.91783e-06
-1.10837e-06
1.7761e-06
-1.09628e-06
1.91526e-06
-1.39191e-06
-1.84024e-06
-3.74422e-06
-1.01361e-05
-2.33694e-06
-8.43977e-06
-5.51518e-07
-6.60254e-06
7.08396e-07
-5.49567e-06
1.62231e-06
-4.61268e-06
2.25885e-06
-3.88075e-06
2.66773e-06
-3.28408e-06
2.89929e-06
-2.8002e-06
2.99793e-06
-2.40546e-06
3.00032e-06
-2.08055e-06
2.9359e-06
-1.81048e-06
2.82757e-06
-1.5841e-06
2.69277e-06
-1.39381e-06
2.54471e-06
-1.23548e-06
2.39368e-06
-1.10828e-06
2.2493e-06
-1.01437e-06
2.12903e-06
-9.64512e-07
2.05507e-06
-1.00749e-06
1.90622e-06
-1.23444e-06
-1.35142e-06
-1.93809e-06
-8.27715e-06
-1.62943e-06
-7.1609e-06
-8.16123e-07
-5.93294e-06
2.4106e-08
-4.99556e-06
7.85761e-07
-4.20478e-06
1.41956e-06
-3.52717e-06
1.90503e-06
-2.96094e-06
2.24567e-06
-2.49687e-06
2.4592e-06
-2.11899e-06
2.56903e-06
-1.81102e-06
2.59929e-06
-1.55883e-06
2.57199e-06
-1.35124e-06
2.50589e-06
-1.1804e-06
2.41614e-06
-1.04187e-06
2.31451e-06
-9.3458e-07
2.21033e-06
-8.61013e-07
2.10987e-06
-8.31115e-07
1.99655e-06
-8.72696e-07
1.78638e-06
-1.01105e-06
-1.07578e-06
-2.14256e-06
-6.84815e-06
-1.76777e-06
-6.0428e-06
-1.14846e-06
-5.11512e-06
-4.47816e-07
-4.3589e-06
2.43116e-07
-3.69769e-06
8.65287e-07
-3.11356e-06
1.3825e-06
-2.61126e-06
1.78079e-06
-2.19077e-06
2.0634e-06
-1.84444e-06
2.24397e-06
-1.5615e-06
2.34092e-06
-1.33098e-06
2.37358e-06
-1.14342e-06
2.35977e-06
-9.91718e-07
2.31454e-06
-8.71572e-07
2.24962e-06
-7.81576e-07
2.17301e-06
-7.23308e-07
2.08669e-06
-7.031e-07
1.97702e-06
-7.35168e-07
1.8119e-06
-8.28197e-07
-8.79115e-07
-2.40833e-06
-5.51875e-06
-2.03637e-06
-4.97692e-06
-1.46181e-06
-4.27901e-06
-8.02752e-07
-3.68023e-06
-1.37287e-07
-3.14317e-06
4.80632e-07
-2.65883e-06
1.01468e-06
-2.23323e-06
1.4462e-06
-1.87004e-06
1.772e-06
-1.5668e-06
1.99989e-06
-1.31732e-06
2.14393e-06
-1.11402e-06
2.22062e-06
-9.49628e-07
2.24617e-06
-8.183e-07
2.23475e-06
-7.16217e-07
2.19746e-06
-6.41748e-07
2.14161e-06
-5.9545e-07
2.06906e-06
-5.80712e-07
1.97247e-06
-6.04729e-07
1.83707e-06
-6.708e-07
-7.11732e-07
-2.59766e-06
-4.28485e-06
-2.23454e-06
-3.93379e-06
-1.68634e-06
-3.42895e-06
-1.04978e-06
-2.97395e-06
-3.98237e-07
-2.5551e-06
2.16495e-07
-2.1708e-06
7.59058e-07
-1.82741e-06
1.20961e-06
-1.52979e-06
1.56214e-06
-1.27823e-06
1.82106e-06
-1.06965e-06
1.99743e-06
-8.99217e-07
2.10539e-06
-7.61773e-07
2.15951e-06
-6.52854e-07
2.17284e-06
-5.69306e-07
2.15577e-06
-5.09491e-07
2.11521e-06
-4.73243e-07
2.05362e-06
-4.6205e-07
1.96753e-06
-4.79415e-07
1.84919e-06
-5.26628e-07
-5.60247e-07
-2.74441e-06
-3.13787e-06
-2.37062e-06
-2.91908e-06
-1.83354e-06
-2.57164e-06
-1.21034e-06
-2.24641e-06
-5.68323e-07
-1.93995e-06
4.27454e-08
-1.65446e-06
5.88611e-07
-1.39598e-06
1.04933e-06
-1.1692e-06
1.41763e-06
-9.7559e-07
1.69605e-06
-8.13927e-07
1.89364e-06
-6.8139e-07
2.0228e-06
-5.74578e-07
2.09668e-06
-4.90336e-07
2.12734e-06
-4.2627e-07
2.12449e-06
-3.80952e-07
2.09482e-06
-3.53872e-07
2.04142e-06
-3.45476e-07
1.96315e-06
-3.57403e-07
1.85598e-06
-3.90375e-07
-4.17054e-07
-2.85276e-06
-2.05613e-06
-2.46262e-06
-1.93037e-06
-1.92619e-06
-1.71326e-06
-1.30906e-06
-1.50459e-06
-6.72884e-07
-1.30446e-06
-6.50327e-08
-1.1158e-06
4.81482e-07
-9.43303e-07
9.47105e-07
-7.90627e-07
1.32412e-06
-6.59311e-07
1.61409e-06
-5.4907e-07
1.82483e-06
-4.58422e-07
1.96752e-06
-3.8535e-07
2.05429e-06
-3.27864e-07
2.09639e-06
-2.84368e-07
2.10304e-06
-2.53815e-07
2.0808e-06
-2.35681e-07
2.0332e-06
-2.29972e-07
1.9605e-06
-2.37427e-07
1.86028e-06
-2.58555e-07
-2.77288e-07
-2.92316e-06
-1.01737e-06
-2.51923e-06
-9.60327e-07
-1.97989e-06
-8.56068e-07
-1.3647e-06
-7.54265e-07
-7.31577e-07
-6.55553e-07
-1.25958e-07
-5.61797e-07
4.20233e-07
-4.75552e-07
8.87922e-07
-3.98807e-07
1.26933e-06
-3.32501e-07
1.56554e-06
-2.76647e-07
1.7837e-06
-2.30628e-07
1.93425e-06
-1.93516e-07
2.02865e-06
-1.64354e-07
2.07761e-06
-1.42347e-07
2.09002e-06
-1.26943e-07
2.07237e-06
-1.17825e-07
2.02845e-06
-1.14919e-07
1.95921e-06
-1.18506e-07
1.86286e-06
-1.2887e-07
-1.38556e-07
-2.95769e-06
1.57801e-12
-2.54607e-06
1.7103e-12
-2.00433e-06
1.7926e-12
-1.38948e-06
1.95736e-12
-7.57607e-07
2.18635e-12
-1.53102e-07
2.45969e-12
3.92724e-07
2.75525e-12
8.61103e-07
3.04513e-12
1.24429e-06
3.27184e-12
1.5432e-06
3.34345e-12
1.76466e-06
3.20635e-12
1.91878e-06
2.91157e-12
2.01669e-06
2.5329e-12
2.06884e-06
2.1745e-12
2.08396e-06
1.86951e-12
2.06849e-06
1.61898e-12
2.02634e-06
1.40964e-12
1.95874e-06
1.24206e-12
1.86407e-06
1.09867e-12
9.15264e-13
-2.95769e-06
1.01738e-06
-2.54607e-06
9.60331e-07
-2.00433e-06
8.56072e-07
-1.38947e-06
7.54269e-07
-7.57606e-07
6.55557e-07
-1.53101e-07
5.61802e-07
3.92724e-07
4.75557e-07
8.61104e-07
3.98813e-07
1.24429e-06
3.32507e-07
1.5432e-06
2.76654e-07
1.76466e-06
2.30634e-07
1.91878e-06
1.93522e-07
2.01669e-06
1.64359e-07
2.06884e-06
1.42352e-07
2.08396e-06
1.26947e-07
2.06849e-06
1.17828e-07
2.02634e-06
1.14922e-07
1.95874e-06
1.18509e-07
1.86407e-06
1.28873e-07
1.38558e-07
-2.92316e-06
2.05613e-06
-2.51923e-06
1.93038e-06
-1.97989e-06
1.71326e-06
-1.36469e-06
1.5046e-06
-7.31576e-07
1.30447e-06
-1.25957e-07
1.11581e-06
4.20234e-07
9.43308e-07
8.87923e-07
7.90632e-07
1.26933e-06
6.59317e-07
1.56554e-06
5.49077e-07
1.7837e-06
4.58428e-07
1.93426e-06
3.85355e-07
2.02865e-06
3.27869e-07
2.07761e-06
2.84372e-07
2.09002e-06
2.53819e-07
2.07237e-06
2.35684e-07
2.02845e-06
2.29975e-07
1.95921e-06
2.37429e-07
1.86286e-06
2.58557e-07
2.77289e-07
-2.85276e-06
3.13787e-06
-2.46262e-06
2.91908e-06
-1.92619e-06
2.57164e-06
-1.30906e-06
2.24641e-06
-6.72882e-07
1.93996e-06
-6.50308e-08
1.65447e-06
4.81484e-07
1.39598e-06
9.47107e-07
1.16921e-06
1.32412e-06
9.75595e-07
1.61409e-06
8.13932e-07
1.82483e-06
6.81395e-07
1.96752e-06
5.74583e-07
2.05429e-06
4.9034e-07
2.09639e-06
4.26274e-07
2.10304e-06
3.80956e-07
2.0808e-06
3.53874e-07
2.0332e-06
3.45478e-07
1.9605e-06
3.57405e-07
1.86028e-06
3.90377e-07
4.17056e-07
-2.7444e-06
4.28485e-06
-2.37062e-06
3.93379e-06
-1.83353e-06
3.42895e-06
-1.21034e-06
2.97395e-06
-5.6832e-07
2.5551e-06
4.27477e-08
2.1708e-06
5.88614e-07
1.82742e-06
1.04933e-06
1.5298e-06
1.41763e-06
1.27824e-06
1.69605e-06
1.06966e-06
1.89364e-06
8.99222e-07
2.0228e-06
7.61777e-07
2.09668e-06
6.52857e-07
2.12734e-06
5.69309e-07
2.12449e-06
5.09494e-07
2.09482e-06
4.73245e-07
2.04142e-06
4.62052e-07
1.96315e-06
4.79417e-07
1.85598e-06
5.2663e-07
5.60248e-07
-2.59766e-06
5.51875e-06
-2.23454e-06
4.97692e-06
-1.68634e-06
4.27901e-06
-1.04977e-06
3.68023e-06
-3.98234e-07
3.14317e-06
2.16498e-07
2.65883e-06
7.59061e-07
2.23323e-06
1.20962e-06
1.87004e-06
1.56214e-06
1.56681e-06
1.82107e-06
1.31733e-06
1.99743e-06
1.11402e-06
2.10539e-06
9.49631e-07
2.15951e-06
8.18304e-07
2.17284e-06
7.1622e-07
2.15577e-06
6.4175e-07
2.11521e-06
5.95452e-07
2.05362e-06
5.80714e-07
1.96753e-06
6.0473e-07
1.84919e-06
6.70801e-07
7.11733e-07
-2.40833e-06
6.84815e-06
-2.03636e-06
6.0428e-06
-1.46181e-06
5.11512e-06
-8.02749e-07
4.3589e-06
-1.37284e-07
3.69769e-06
4.80635e-07
3.11356e-06
1.01468e-06
2.61126e-06
1.4462e-06
2.19077e-06
1.77201e-06
1.84444e-06
1.9999e-06
1.5615e-06
2.14394e-06
1.33099e-06
2.22062e-06
1.14343e-06
2.24617e-06
9.91721e-07
2.23475e-06
8.71574e-07
2.19746e-06
7.81578e-07
2.14161e-06
7.2331e-07
2.06906e-06
7.03102e-07
1.97247e-06
7.35169e-07
1.83707e-06
8.28198e-07
8.79116e-07
-2.14256e-06
8.27715e-06
-1.76777e-06
7.1609e-06
-1.14846e-06
5.93294e-06
-4.47813e-07
4.99556e-06
2.43119e-07
4.20479e-06
8.6529e-07
3.52717e-06
1.3825e-06
2.96094e-06
1.78079e-06
2.49687e-06
2.0634e-06
2.11899e-06
2.24397e-06
1.81102e-06
2.34093e-06
1.55883e-06
2.37358e-06
1.35124e-06
2.35977e-06
1.1804e-06
2.31455e-06
1.04187e-06
2.24962e-06
9.34582e-07
2.17301e-06
8.61014e-07
2.08669e-06
8.31116e-07
1.97702e-06
8.72696e-07
1.8119e-06
1.01105e-06
1.07578e-06
-1.93808e-06
1.01361e-05
-1.62943e-06
8.43976e-06
-8.16121e-07
6.60254e-06
2.41089e-08
5.49567e-06
7.85764e-07
4.61268e-06
1.41957e-06
3.88075e-06
1.90503e-06
3.28408e-06
2.24567e-06
2.8002e-06
2.4592e-06
2.40546e-06
2.56904e-06
2.08055e-06
2.59929e-06
1.81048e-06
2.57199e-06
1.5841e-06
2.50589e-06
1.39381e-06
2.41614e-06
1.23548e-06
2.31451e-06
1.10828e-06
2.21033e-06
1.01437e-06
2.10987e-06
9.64512e-07
1.99655e-06
1.00749e-06
1.78638e-06
1.23444e-06
1.35142e-06
-3.74421e-06
1.42993e-05
-2.33694e-06
8.7809e-06
-5.51515e-07
6.36322e-06
7.08399e-07
5.56835e-06
1.62231e-06
4.81635e-06
2.25886e-06
4.15595e-06
2.66773e-06
3.59948e-06
2.89929e-06
3.12978e-06
2.99793e-06
2.73167e-06
3.00033e-06
2.39312e-06
2.9359e-06
2.104e-06
2.82757e-06
1.85616e-06
2.69277e-06
1.64372e-06
2.54471e-06
1.46317e-06
2.39368e-06
1.3135e-06
2.2493e-06
1.19494e-06
2.12903e-06
1.10837e-06
2.05507e-06
1.09628e-06
1.90622e-06
1.39191e-06
1.84023e-06
-9.93925e-06
-2.34174e-06
6.15216e-07
2.22097e-06
3.09486e-06
3.52297e-06
3.68065e-06
3.67426e-06
3.56832e-06
3.40351e-06
3.20597e-06
2.99228e-06
2.77254e-06
2.5526e-06
2.33572e-06
2.1229e-06
1.91783e-06
1.7761e-06
1.91526e-06
)
;

boundaryField
{
    leftWall
    {
        type            calculated;
        value           nonuniform List<scalar> 
20
(
1.30293e-05
1.38723e-06
1.64559e-06
2.16024e-06
2.45048e-06
2.67891e-06
2.86822e-06
3.00848e-06
3.09961e-06
3.14442e-06
3.14442e-06
3.09961e-06
3.00848e-06
2.86822e-06
2.67891e-06
2.45047e-06
2.16024e-06
1.64558e-06
1.38723e-06
1.30293e-05
)
;
    }
    rightWall
    {
        type            calculated;
        value           nonuniform List<scalar> 
20
(
1.87801e-06
1.42074e-06
1.51684e-06
1.62401e-06
1.681e-06
1.71129e-06
1.7283e-06
1.73753e-06
1.74216e-06
1.74406e-06
1.74406e-06
1.74216e-06
1.73753e-06
1.7283e-06
1.71129e-06
1.681e-06
1.62401e-06
1.51684e-06
1.42074e-06
1.87801e-06
)
;
    }
    topWall
    {
        type            calculated;
        value           nonuniform List<scalar> 
20
(
1.34022e-05
3.23926e-06
4.9914e-06
5.20532e-06
4.91282e-06
4.47295e-06
4.00256e-06
3.54983e-06
3.13706e-06
2.771e-06
2.45072e-06
2.17274e-06
1.93338e-06
1.72987e-06
1.56107e-06
1.42744e-06
1.32561e-06
1.24506e-06
1.25616e-06
1.87801e-06
)
;
    }
    bottomWall
    {
        type            calculated;
        value           nonuniform List<scalar> 
20
(
1.34022e-05
3.23926e-06
4.9914e-06
5.20531e-06
4.91282e-06
4.47294e-06
4.00256e-06
3.54982e-06
3.13706e-06
2.771e-06
2.45072e-06
2.17274e-06
1.93338e-06
1.72987e-06
1.56107e-06
1.42744e-06
1.32561e-06
1.24506e-06
1.25616e-06
1.87801e-06
)
;
    }
    frontAndBackPlanes
    {
        type            empty;
    }
}


// ************************************************************************* //
