/*--------------------------------*- C++ -*----------------------------------*\
| =========                 |                                                 |
| \\      /  F ield         | OpenFOAM: The Open Source CFD Toolbox           |
|  \\    /   O peration     | Version:  2506                                  |
|   \\  /    A nd           | Website:  www.openfoam.com                      |
|    \\/     M anipulation  |                                                 |
\*---------------------------------------------------------------------------*/
FoamFile
{
    version     2.0;
    format      ascii;
    arch        "LSB;label=32;scalar=64";
    class       volScalarField;
    location    "0.989945";
    object      T;
}
// * * * * * * * * * * * * * * * * * * * * * * * * * * * * * * * * * * * * * //

dimensions      [0 0 0 1 0 0 0];

internalField   nonuniform List<scalar> 
400
(
286.42
277.251
275.27
274.424
273.933
273.619
273.411
273.273
273.181
273.119
273.078
273.051
273.033
273.021
273.013
273.008
273.005
273.003
273.001
273
283.577
277.884
275.994
274.97
274.331
273.909
273.622
273.424
273.288
273.195
273.131
273.087
273.058
273.038
273.025
273.016
273.01
273.006
273.003
273.001
282.753
277.931
276.204
275.195
274.529
274.07
273.747
273.52
273.359
273.247
273.168
273.114
273.076
273.051
273.034
273.022
273.014
273.009
273.005
273.002
282.462
277.931
276.298
275.32
274.654
274.18
273.838
273.592
273.415
273.289
273.199
273.137
273.093
273.063
273.042
273.028
273.018
273.012
273.007
273.003
282.324
277.93
276.351
275.398
274.737
274.258
273.907
273.649
273.46
273.324
273.226
273.156
273.107
273.073
273.049
273.033
273.022
273.014
273.009
273.004
282.245
277.931
276.384
275.448
274.794
274.314
273.957
273.692
273.496
273.352
273.248
273.173
273.119
273.082
273.056
273.038
273.025
273.017
273.011
273.005
282.196
277.932
276.405
275.482
274.833
274.353
273.994
273.724
273.523
273.374
273.265
273.186
273.129
273.089
273.061
273.042
273.028
273.019
273.012
273.006
282.166
277.934
276.419
275.503
274.858
274.38
274.019
273.747
273.542
273.389
273.277
273.195
273.137
273.095
273.065
273.044
273.03
273.02
273.013
273.007
282.148
277.935
276.428
275.516
274.874
274.396
274.035
273.761
273.554
273.4
273.285
273.202
273.142
273.098
273.068
273.046
273.032
273.021
273.014
273.007
282.139
277.935
276.432
275.522
274.881
274.404
274.042
273.768
273.56
273.405
273.289
273.205
273.144
273.1
273.069
273.047
273.032
273.022
273.014
273.007
282.139
277.935
276.432
275.522
274.881
274.404
274.042
273.768
273.56
273.405
273.289
273.205
273.144
273.1
273.069
273.047
273.032
273.022
273.014
273.007
282.148
277.935
276.428
275.516
274.874
274.396
274.035
273.761
273.554
273.4
273.285
273.202
273.142
273.098
273.068
273.046
273.032
273.021
273.014
273.007
282.166
277.934
276.419
275.503
274.858
274.38
274.019
273.747
273.542
273.389
273.277
273.195
273.137
273.095
273.065
273.044
273.03
273.02
273.013
273.007
282.196
277.932
276.405
275.482
274.833
274.353
273.994
273.724
273.523
273.374
273.265
273.186
273.129
273.089
273.061
273.042
273.028
273.019
273.012
273.006
282.245
277.931
276.384
275.448
274.794
274.314
273.957
273.692
273.496
273.352
273.248
273.173
273.119
273.082
273.056
273.038
273.025
273.017
273.011
273.005
282.324
277.93
276.351
275.398
274.737
274.258
273.907
273.649
273.46
273.324
273.226
273.156
273.107
273.073
273.049
273.033
273.022
273.014
273.009
273.004
282.462
277.931
276.298
275.32
274.654
274.18
273.838
273.592
273.415
273.289
273.199
273.137
273.093
273.063
273.042
273.028
273.018
273.012
273.007
273.003
282.753
277.931
276.204
275.195
274.529
274.07
273.747
273.52
273.359
273.247
273.168
273.114
273.076
273.051
273.034
273.022
273.014
273.009
273.005
273.002
283.577
277.884
275.994
274.97
274.331
273.909
273.622
273.424
273.288
273.195
273.131
273.087
273.058
273.038
273.025
273.016
273.01
273.006
273.003
273.001
286.42
277.251
275.27
274.424
273.933
273.619
273.411
273.273
273.181
273.119
273.078
273.051
273.033
273.021
273.013
273.008
273.005
273.003
273.001
273
)
;

boundaryField
{
    leftWall
    {
        type            fixedValue;
        value           uniform 373;
    }
    rightWall
    {
        type            fixedValue;
        value           uniform 273;
    }
    topWall
    {
        type            fixedValue;
        value           uniform 273;
    }
    bottomWall
    {
        type            fixedValue;
        value           uniform 273;
    }
    frontAndBackPlanes
    {
        type            empty;
    }
}


// ************************************************************************* //
