/*--------------------------------*- C++ -*----------------------------------*\
| =========                 |                                                 |
| \\      /  F ield         | OpenFOAM: The Open Source CFD Toolbox           |
|  \\    /   O peration     | Version:  2506                                  |
|   \\  /    A nd           | Website:  www.openfoam.com                      |
|    \\/     M anipulation  |                                                 |
\*---------------------------------------------------------------------------*/
FoamFile
{
    version     2.0;
    format      ascii;
    arch        "LSB;label=32;scalar=64";
    class       volVectorField;
    location    "0.989945";
    object      U;
}
// * * * * * * * * * * * * * * * * * * * * * * * * * * * * * * * * * * * * * //

dimensions      [0 1 -1 0 0 0 0];

internalField   nonuniform List<vector> 
400
(
(-0.000262924 -0.000304043 0)
(-8.11688e-06 -0.000121877 0)
(-5.95663e-06 -9.29163e-05 0)
(1.1958e-05 -8.36367e-05 0)
(2.19649e-05 -7.38694e-05 0)
(2.69728e-05 -6.4616e-05 0)
(2.91202e-05 -5.64593e-05 0)
(2.96065e-05 -4.93862e-05 0)
(2.90792e-05 -4.32901e-05 0)
(2.79413e-05 -3.80455e-05 0)
(2.64544e-05 -3.35257e-05 0)
(2.47854e-05 -2.96236e-05 0)
(2.30372e-05 -2.62603e-05 0)
(2.12699e-05 -2.33894e-05 0)
(1.95207e-05 -2.09987e-05 0)
(1.78235e-05 -1.90939e-05 0)
(1.61617e-05 -1.76773e-05 0)
(1.44019e-05 -1.72309e-05 0)
(1.34849e-05 -2.08109e-05 0)
(2.9873e-05 -2.98337e-05 0)
(-6.99086e-05 -6.17955e-05 0)
(-1.90419e-05 -6.64816e-05 0)
(-1.00136e-05 -5.36639e-05 0)
(1.13168e-06 -4.56654e-05 0)
(9.86157e-06 -3.86036e-05 0)
(1.59969e-05 -3.26739e-05 0)
(2.00624e-05 -2.78317e-05 0)
(2.25291e-05 -2.38835e-05 0)
(2.37737e-05 -2.06366e-05 0)
(2.41155e-05 -1.79404e-05 0)
(2.38182e-05 -1.56798e-05 0)
(2.30899e-05 -1.37691e-05 0)
(2.20897e-05 -1.21497e-05 0)
(2.09372e-05 -1.07891e-05 0)
(1.97272e-05 -9.67936e-06 0)
(1.85459e-05 -8.83586e-06 0)
(1.74316e-05 -8.34207e-06 0)
(1.63135e-05 -8.60271e-06 0)
(1.59252e-05 -1.04928e-05 0)
(2.51837e-05 -1.15858e-05 0)
(-3.84343e-05 -6.95304e-05 0)
(-1.3817e-05 -6.07601e-05 0)
(-9.50156e-06 -4.95712e-05 0)
(-2.98248e-06 -4.14642e-05 0)
(3.46592e-06 -3.48024e-05 0)
(9.10618e-06 -2.9186e-05 0)
(1.35798e-05 -2.4549e-05 0)
(1.68503e-05 -2.07755e-05 0)
(1.90208e-05 -1.77103e-05 0)
(2.02648e-05 -1.52087e-05 0)
(2.07787e-05 -1.31512e-05 0)
(2.07506e-05 -1.14463e-05 0)
(2.03443e-05 -1.00311e-05 0)
(1.96955e-05 -8.87087e-06 0)
(1.89151e-05 -7.95847e-06 0)
(1.80884e-05 -7.31527e-06 0)
(1.72125e-05 -7.02725e-06 0)
(1.61747e-05 -7.36497e-06 0)
(1.55934e-05 -8.66103e-06 0)
(2.35063e-05 -9.32915e-06 0)
(-4.09718e-05 -6.07757e-05 0)
(-1.5422e-05 -5.29821e-05 0)
(-1.13913e-05 -4.41687e-05 0)
(-6.29225e-06 -3.73514e-05 0)
(-7.31921e-07 -3.15513e-05 0)
(4.61599e-06 -2.65065e-05 0)
(9.21521e-06 -2.22237e-05 0)
(1.28757e-05 -1.86743e-05 0)
(1.55747e-05 -1.57696e-05 0)
(1.73909e-05 -1.34026e-05 0)
(1.8461e-05 -1.14725e-05 0)
(1.89413e-05 -9.89554e-06 0)
(1.89836e-05 -8.6111e-06 0)
(1.87211e-05 -7.58377e-06 0)
(1.82657e-05 -6.80363e-06 0)
(1.76954e-05 -6.28732e-06 0)
(1.69863e-05 -6.09817e-06 0)
(1.60452e-05 -6.3922e-06 0)
(1.56003e-05 -7.29574e-06 0)
(2.40313e-05 -7.79859e-06 0)
(-4.47466e-05 -4.94734e-05 0)
(-1.76249e-05 -4.41206e-05 0)
(-1.36481e-05 -3.76413e-05 0)
(-8.98505e-06 -3.22347e-05 0)
(-3.72515e-06 -2.74451e-05 0)
(1.50851e-06 -2.31637e-05 0)
(6.17078e-06 -1.94362e-05 0)
(1.00449e-05 -1.62823e-05 0)
(1.3062e-05 -1.3666e-05 0)
(1.525e-05 -1.15216e-05 0)
(1.67038e-05 -9.7756e-06 0)
(1.7552e-05 -8.36093e-06 0)
(1.79293e-05 -7.22532e-06 0)
(1.79602e-05 -6.33586e-06 0)
(1.7751e-05 -5.68003e-06 0)
(1.73734e-05 -5.26577e-06 0)
(1.67991e-05 -5.12973e-06 0)
(1.59621e-05 -5.35107e-06 0)
(1.56752e-05 -5.97353e-06 0)
(2.45263e-05 -6.3549e-06 0)
(-4.76169e-05 -3.90523e-05 0)
(-1.91913e-05 -3.55613e-05 0)
(-1.5319e-05 -3.08301e-05 0)
(-1.08803e-05 -2.66503e-05 0)
(-5.77944e-06 -2.28397e-05 0)
(-6.15584e-07 -1.93669e-05 0)
(4.07069e-06 -1.6285e-05 0)
(8.06046e-06 -1.3631e-05 0)
(1.12673e-05 -1.13994e-05 0)
(1.36925e-05 -9.55573e-06 0)
(1.54049e-05 -8.05155e-06 0)
(1.65109e-05 -6.83774e-06 0)
(1.71297e-05 -5.87311e-06 0)
(1.73752e-05 -5.12949e-06 0)
(1.73464e-05 -4.59335e-06 0)
(1.711e-05 -4.26541e-06 0)
(1.66374e-05 -4.16315e-06 0)
(1.5883e-05 -4.32525e-06 0)
(1.57099e-05 -4.76782e-06 0)
(2.4821e-05 -5.07425e-06 0)
(-4.99643e-05 -2.95728e-05 0)
(-2.0284e-05 -2.73406e-05 0)
(-1.64367e-05 -2.39849e-05 0)
(-1.21132e-05 -2.0893e-05 0)
(-7.11284e-06 -1.80058e-05 0)
(-2.00425e-06 -1.5332e-05 0)
(2.68071e-06 -1.29236e-05 0)
(6.72641e-06 -1.08205e-05 0)
(1.00405e-05 -9.03197e-06 0)
(1.26108e-05 -7.54277e-06 0)
(1.44896e-05 -6.32371e-06 0)
(1.57682e-05 -5.3413e-06 0)
(1.6553e-05 -4.56533e-06 0)
(1.69481e-05 -3.97352e-06 0)
(1.70461e-05 -3.55322e-06 0)
(1.69095e-05 -3.30095e-06 0)
(1.65107e-05 -3.22305e-06 0)
(1.58181e-05 -3.33795e-06 0)
(1.57247e-05 -3.6538e-06 0)
(2.50174e-05 -3.90248e-06 0)
(-5.17482e-05 -2.07002e-05 0)
(-2.10398e-05 -1.93488e-05 0)
(-1.71571e-05 -1.71249e-05 0)
(-1.28752e-05 -1.50106e-05 0)
(-7.93012e-06 -1.29959e-05 0)
(-2.86057e-06 -1.11047e-05 0)
(1.81317e-06 -9.38124e-06 0)
(5.88158e-06 -7.86039e-06 0)
(9.25189e-06 -6.55555e-06 0)
(1.19056e-05 -5.46215e-06 0)
(1.38856e-05 -4.56405e-06 0)
(1.5273e-05 -3.84024e-06 0)
(1.61651e-05 -3.27046e-06 0)
(1.66587e-05 -2.83872e-06 0)
(1.68409e-05 -2.53486e-06 0)
(1.67716e-05 -2.3542e-06 0)
(1.6424e-05 -2.2977e-06 0)
(1.57753e-05 -2.3739e-06 0)
(1.57353e-05 -2.58832e-06 0)
(2.51533e-05 -2.77555e-06 0)
(-5.29289e-05 -1.2249e-05 0)
(-2.15136e-05 -1.15322e-05 0)
(-1.75836e-05 -1.02672e-05 0)
(-1.33078e-05 -9.03881e-06 0)
(-8.38831e-06 -7.85129e-06 0)
(-3.34223e-06 -6.72546e-06 0)
(1.32017e-06 -5.69125e-06 0)
(5.39543e-06 -4.77207e-06 0)
(8.7923e-06 -3.97868e-06 0)
(1.14899e-05 -3.31085e-06 0)
(1.3526e-05 -2.76086e-06 0)
(1.49758e-05 -2.31739e-06 0)
(1.59309e-05 -1.96885e-06 0)
(1.64832e-05 -1.70571e-06 0)
(1.67162e-05 -1.52141e-06 0)
(1.66881e-05 -1.41228e-06 0)
(1.63725e-05 -1.37761e-06 0)
(1.57515e-05 -1.42106e-06 0)
(1.57436e-05 -1.54627e-06 0)
(2.52394e-05 -1.66327e-06 0)
(-5.35148e-05 -4.05441e-06 0)
(-2.1741e-05 -3.83075e-06 0)
(-1.77807e-05 -3.42056e-06 0)
(-1.35017e-05 -3.01802e-06 0)
(-8.5914e-06 -2.62594e-06 0)
(-3.55607e-06 -2.25231e-06 0)
(1.09972e-06 -1.90767e-06 0)
(5.17607e-06 -1.60025e-06 0)
(8.58307e-06 -1.33409e-06 0)
(1.12991e-05 -1.10954e-06 0)
(1.33598e-05 -9.24341e-07 0)
(1.48378e-05 -7.74953e-07 0)
(1.58218e-05 -6.57624e-07 0)
(1.64012e-05 -5.6918e-07 0)
(1.66581e-05 -5.07364e-07 0)
(1.66494e-05 -4.70815e-07 0)
(1.6349e-05 -4.59095e-07 0)
(1.57414e-05 -4.73219e-07 0)
(1.57483e-05 -5.14482e-07 0)
(2.52813e-05 -5.54331e-07 0)
(-5.35148e-05 4.05443e-06 0)
(-2.1741e-05 3.83077e-06 0)
(-1.77807e-05 3.42059e-06 0)
(-1.35016e-05 3.01805e-06 0)
(-8.5914e-06 2.62598e-06 0)
(-3.55607e-06 2.25235e-06 0)
(1.09972e-06 1.90771e-06 0)
(5.17607e-06 1.6003e-06 0)
(8.58307e-06 1.33414e-06 0)
(1.12991e-05 1.10959e-06 0)
(1.33598e-05 9.24392e-07 0)
(1.48378e-05 7.75e-07 0)
(1.58218e-05 6.57664e-07 0)
(1.64012e-05 5.69215e-07 0)
(1.66581e-05 5.07394e-07 0)
(1.66494e-05 4.7084e-07 0)
(1.6349e-05 4.59117e-07 0)
(1.57414e-05 4.73239e-07 0)
(1.57483e-05 5.145e-07 0)
(2.52813e-05 5.54345e-07 0)
(-5.29289e-05 1.22491e-05 0)
(-2.15136e-05 1.15322e-05 0)
(-1.75836e-05 1.02672e-05 0)
(-1.33078e-05 9.03884e-06 0)
(-8.3883e-06 7.85133e-06 0)
(-3.34222e-06 6.7255e-06 0)
(1.32018e-06 5.69129e-06 0)
(5.39544e-06 4.77211e-06 0)
(8.79231e-06 3.97873e-06 0)
(1.14899e-05 3.3109e-06 0)
(1.3526e-05 2.76091e-06 0)
(1.49758e-05 2.31743e-06 0)
(1.59309e-05 1.96889e-06 0)
(1.64832e-05 1.70574e-06 0)
(1.67162e-05 1.52143e-06 0)
(1.66881e-05 1.4123e-06 0)
(1.63725e-05 1.37763e-06 0)
(1.57515e-05 1.42108e-06 0)
(1.57436e-05 1.54629e-06 0)
(2.52394e-05 1.66329e-06 0)
(-5.17481e-05 2.07002e-05 0)
(-2.10398e-05 1.93488e-05 0)
(-1.71571e-05 1.7125e-05 0)
(-1.28752e-05 1.50106e-05 0)
(-7.93011e-06 1.29959e-05 0)
(-2.86055e-06 1.11047e-05 0)
(1.81318e-06 9.38128e-06 0)
(5.8816e-06 7.86043e-06 0)
(9.25191e-06 6.5556e-06 0)
(1.19057e-05 5.4622e-06 0)
(1.38856e-05 4.56409e-06 0)
(1.5273e-05 3.84028e-06 0)
(1.61651e-05 3.27049e-06 0)
(1.66587e-05 2.83875e-06 0)
(1.68409e-05 2.53489e-06 0)
(1.67716e-05 2.35422e-06 0)
(1.6424e-05 2.29772e-06 0)
(1.57753e-05 2.37392e-06 0)
(1.57353e-05 2.58834e-06 0)
(2.51533e-05 2.77556e-06 0)
(-4.99642e-05 2.95728e-05 0)
(-2.02839e-05 2.73406e-05 0)
(-1.64367e-05 2.39849e-05 0)
(-1.21132e-05 2.0893e-05 0)
(-7.11282e-06 1.80058e-05 0)
(-2.00423e-06 1.53321e-05 0)
(2.68073e-06 1.29237e-05 0)
(6.72643e-06 1.08206e-05 0)
(1.00405e-05 9.03201e-06 0)
(1.26109e-05 7.54281e-06 0)
(1.44897e-05 6.32375e-06 0)
(1.57682e-05 5.34133e-06 0)
(1.6553e-05 4.56536e-06 0)
(1.69481e-05 3.97355e-06 0)
(1.70461e-05 3.55324e-06 0)
(1.69095e-05 3.30097e-06 0)
(1.65107e-05 3.22306e-06 0)
(1.58181e-05 3.33797e-06 0)
(1.57247e-05 3.65382e-06 0)
(2.50174e-05 3.90249e-06 0)
(-4.76169e-05 3.90523e-05 0)
(-1.91913e-05 3.55613e-05 0)
(-1.53189e-05 3.08301e-05 0)
(-1.08803e-05 2.66503e-05 0)
(-5.77942e-06 2.28397e-05 0)
(-6.15563e-07 1.93669e-05 0)
(4.07071e-06 1.6285e-05 0)
(8.06048e-06 1.3631e-05 0)
(1.12673e-05 1.13995e-05 0)
(1.36926e-05 9.55577e-06 0)
(1.54049e-05 8.05159e-06 0)
(1.65109e-05 6.83778e-06 0)
(1.71297e-05 5.87314e-06 0)
(1.73752e-05 5.12951e-06 0)
(1.73464e-05 4.59338e-06 0)
(1.711e-05 4.26543e-06 0)
(1.66374e-05 4.16317e-06 0)
(1.5883e-05 4.32526e-06 0)
(1.57099e-05 4.76783e-06 0)
(2.4821e-05 5.07426e-06 0)
(-4.47466e-05 4.94734e-05 0)
(-1.76249e-05 4.41206e-05 0)
(-1.36481e-05 3.76414e-05 0)
(-8.98503e-06 3.22347e-05 0)
(-3.72513e-06 2.74451e-05 0)
(1.50853e-06 2.31637e-05 0)
(6.17081e-06 1.94362e-05 0)
(1.0045e-05 1.62823e-05 0)
(1.3062e-05 1.3666e-05 0)
(1.525e-05 1.15216e-05 0)
(1.67039e-05 9.77563e-06 0)
(1.7552e-05 8.36095e-06 0)
(1.79294e-05 7.22534e-06 0)
(1.79602e-05 6.33588e-06 0)
(1.7751e-05 5.68004e-06 0)
(1.73734e-05 5.26578e-06 0)
(1.67991e-05 5.12975e-06 0)
(1.59621e-05 5.35108e-06 0)
(1.56752e-05 5.97354e-06 0)
(2.45263e-05 6.35491e-06 0)
(-4.09718e-05 6.07757e-05 0)
(-1.5422e-05 5.29821e-05 0)
(-1.13912e-05 4.41687e-05 0)
(-6.29223e-06 3.73514e-05 0)
(-7.31897e-07 3.15513e-05 0)
(4.61602e-06 2.65065e-05 0)
(9.21524e-06 2.22237e-05 0)
(1.28757e-05 1.86743e-05 0)
(1.55747e-05 1.57696e-05 0)
(1.7391e-05 1.34026e-05 0)
(1.8461e-05 1.14725e-05 0)
(1.89413e-05 9.89556e-06 0)
(1.89836e-05 8.61112e-06 0)
(1.87211e-05 7.58378e-06 0)
(1.82657e-05 6.80365e-06 0)
(1.76954e-05 6.28733e-06 0)
(1.69863e-05 6.09818e-06 0)
(1.60452e-05 6.39221e-06 0)
(1.56003e-05 7.29575e-06 0)
(2.40313e-05 7.7986e-06 0)
(-3.84342e-05 6.95304e-05 0)
(-1.3817e-05 6.07601e-05 0)
(-9.50154e-06 4.95712e-05 0)
(-2.98246e-06 4.14642e-05 0)
(3.46594e-06 3.48024e-05 0)
(9.1062e-06 2.9186e-05 0)
(1.35798e-05 2.4549e-05 0)
(1.68503e-05 2.07755e-05 0)
(1.90208e-05 1.77103e-05 0)
(2.02648e-05 1.52087e-05 0)
(2.07787e-05 1.31512e-05 0)
(2.07506e-05 1.14463e-05 0)
(2.03443e-05 1.00311e-05 0)
(1.96955e-05 8.87088e-06 0)
(1.89151e-05 7.95848e-06 0)
(1.80884e-05 7.31528e-06 0)
(1.72125e-05 7.02726e-06 0)
(1.61747e-05 7.36497e-06 0)
(1.55934e-05 8.66104e-06 0)
(2.35063e-05 9.32915e-06 0)
(-6.99086e-05 6.17955e-05 0)
(-1.90419e-05 6.64816e-05 0)
(-1.00136e-05 5.36639e-05 0)
(1.1317e-06 4.56654e-05 0)
(9.86159e-06 3.86036e-05 0)
(1.5997e-05 3.26739e-05 0)
(2.00624e-05 2.78317e-05 0)
(2.25291e-05 2.38835e-05 0)
(2.37737e-05 2.06366e-05 0)
(2.41155e-05 1.79405e-05 0)
(2.38182e-05 1.56798e-05 0)
(2.30899e-05 1.37691e-05 0)
(2.20897e-05 1.21497e-05 0)
(2.09371e-05 1.07891e-05 0)
(1.97272e-05 9.67937e-06 0)
(1.85459e-05 8.83586e-06 0)
(1.74316e-05 8.34207e-06 0)
(1.63135e-05 8.60271e-06 0)
(1.59252e-05 1.04928e-05 0)
(2.51837e-05 1.15858e-05 0)
(-0.000262924 0.000304043 0)
(-8.11686e-06 0.000121877 0)
(-5.95661e-06 9.29163e-05 0)
(1.19581e-05 8.36367e-05 0)
(2.19649e-05 7.38694e-05 0)
(2.69728e-05 6.4616e-05 0)
(2.91203e-05 5.64593e-05 0)
(2.96066e-05 4.93862e-05 0)
(2.90792e-05 4.32901e-05 0)
(2.79413e-05 3.80454e-05 0)
(2.64544e-05 3.35257e-05 0)
(2.47854e-05 2.96236e-05 0)
(2.30372e-05 2.62603e-05 0)
(2.12699e-05 2.33894e-05 0)
(1.95207e-05 2.09987e-05 0)
(1.78235e-05 1.90939e-05 0)
(1.61617e-05 1.76772e-05 0)
(1.44019e-05 1.72309e-05 0)
(1.34849e-05 2.08109e-05 0)
(2.9873e-05 2.98337e-05 0)
)
;

boundaryField
{
    leftWall
    {
        type            noSlip;
    }
    rightWall
    {
        type            noSlip;
    }
    topWall
    {
        type            noSlip;
    }
    bottomWall
    {
        type            noSlip;
    }
    frontAndBackPlanes
    {
        type            empty;
    }
}


// ************************************************************************* //
