/*--------------------------------*- C++ -*----------------------------------*\
| =========                 |                                                 |
| \\      /  F ield         | OpenFOAM: The Open Source CFD Toolbox           |
|  \\    /   O peration     | Version:  2506                                  |
|   \\  /    A nd           | Website:  www.openfoam.com                      |
|    \\/     M anipulation  |                                                 |
\*---------------------------------------------------------------------------*/
FoamFile
{
    version     2.0;
    format      ascii;
    arch        "LSB;label=32;scalar=64";
    class       volScalarField;
    location    "0.774954";
    object      alphat;
}
// * * * * * * * * * * * * * * * * * * * * * * * * * * * * * * * * * * * * * //

dimensions      [1 -1 -1 0 0 0 0];

internalField   nonuniform List<scalar> 
400
(
0.151024
0.2675
0.318961
0.349894
0.371079
0.386039
0.396425
0.403293
0.407423
0.40935
0.409353
0.40743
0.403307
0.396445
0.386068
0.371119
0.349952
0.319049
0.267631
0.151327
0.267139
2.29828
3.20689
3.67324
3.9553
4.13803
4.25829
4.33562
4.38157
4.40295
4.403
4.3817
4.33585
4.25865
4.13855
3.95605
3.6743
3.20838
2.30026
0.267633
0.318444
3.20526
4.98313
5.98551
6.59943
6.99324
7.24898
7.41164
7.50762
7.55213
7.55224
7.50794
7.41221
7.24985
6.99447
6.60113
5.98778
4.986
3.2084
0.319053
0.349286
3.67057
5.98402
7.37942
8.26084
8.83352
9.20734
9.44563
9.58641
9.65176
9.65193
9.58691
9.44651
9.20866
8.83538
8.26332
7.3826
5.98781
3.67433
0.349957
0.370414
3.95195
6.5968
8.25954
9.33727
10.0485
10.5172
10.8179
10.9963
11.0793
11.0795
10.9969
10.819
10.5189
10.0508
9.34034
8.26335
6.60118
3.95609
0.371125
0.385334
4.13422
6.98977
8.83119
10.0474
10.8608
11.4021
11.7518
11.9602
12.0575
12.0578
11.961
11.7531
11.4041
10.8635
10.0509
8.83544
6.99454
4.13861
0.386074
0.39569
4.25416
7.24491
9.20421
10.5152
11.4012
11.9955
12.3818
12.6131
12.7214
12.7217
12.614
12.3833
11.9977
11.4042
10.519
9.20877
7.24994
4.25871
0.396451
0.402539
4.33126
7.40714
9.44191
10.8152
11.7501
12.381
12.7931
13.0407
13.1568
13.1571
13.0416
12.7947
12.3834
11.7533
10.8192
9.44667
7.41235
4.33592
0.403314
0.406655
4.37707
7.50281
9.58228
10.9931
11.958
12.6118
13.0401
13.2981
13.4192
13.4196
13.299
13.0418
12.6142
11.9613
10.9972
9.58716
7.50813
4.38179
0.407438
0.408575
4.39836
7.54713
9.64735
11.0758
12.0549
12.7196
13.1557
13.4188
13.5425
13.5428
13.4198
13.1575
12.7221
12.0583
11.0799
9.65229
7.55249
4.40312
0.409362
0.408575
4.39836
7.54713
9.64735
11.0758
12.0549
12.7196
13.1557
13.4188
13.5425
13.5428
13.4198
13.1575
12.7221
12.0583
11.0799
9.65229
7.55249
4.40312
0.409362
0.406655
4.37707
7.50281
9.58228
10.9931
11.958
12.6118
13.0401
13.2981
13.4192
13.4196
13.299
13.0418
12.6142
11.9613
10.9972
9.58716
7.50813
4.38179
0.407438
0.402539
4.33126
7.40714
9.44191
10.8152
11.7501
12.381
12.7931
13.0407
13.1568
13.1571
13.0416
12.7947
12.3834
11.7533
10.8192
9.44667
7.41234
4.33592
0.403314
0.39569
4.25416
7.24491
9.20421
10.5152
11.4012
11.9955
12.3818
12.6131
12.7214
12.7217
12.614
12.3833
11.9977
11.4042
10.519
9.20877
7.24994
4.25871
0.396451
0.385334
4.13422
6.98977
8.83119
10.0474
10.8608
11.4021
11.7518
11.9602
12.0575
12.0578
11.961
11.7531
11.4041
10.8635
10.0509
8.83544
6.99454
4.13861
0.386074
0.370414
3.95195
6.5968
8.25954
9.33727
10.0485
10.5172
10.8179
10.9963
11.0793
11.0795
10.9969
10.819
10.5189
10.0508
9.34034
8.26335
6.60118
3.95609
0.371125
0.349286
3.67057
5.98402
7.37942
8.26084
8.83352
9.20734
9.44563
9.58641
9.65176
9.65193
9.58691
9.44651
9.20866
8.83538
8.26332
7.3826
5.98781
3.67433
0.349957
0.318444
3.20526
4.98313
5.98551
6.59943
6.99324
7.24898
7.41164
7.50762
7.55213
7.55224
7.50794
7.41221
7.24985
6.99447
6.60113
5.98778
4.986
3.2084
0.319053
0.267139
2.29828
3.20689
3.67324
3.9553
4.13803
4.25829
4.33562
4.38157
4.40295
4.40299
4.3817
4.33585
4.25865
4.13855
3.95605
3.6743
3.20838
2.30026
0.267633
0.151024
0.2675
0.318961
0.349894
0.371079
0.386039
0.396425
0.403293
0.407423
0.40935
0.409353
0.40743
0.403307
0.396445
0.386068
0.371119
0.349952
0.319049
0.267631
0.151327
)
;

boundaryField
{
    leftWall
    {
        type            compressible::alphatWallFunction;
        value           nonuniform List<scalar> 
20
(
0.0316495
0.0472064
0.0535391
0.0568367
0.0587757
0.0599616
0.0606882
0.0611229
0.0613656
0.0614738
0.0614738
0.0613656
0.0611229
0.0606882
0.0599616
0.0587757
0.0568367
0.0535391
0.0472064
0.0316495
)
;
    }
    rightWall
    {
        type            compressible::alphatWallFunction;
        value           nonuniform List<scalar> 
20
(
0.0379569
0.0568898
0.0645717
0.0685643
0.0709098
0.0723436
0.0732219
0.0737472
0.0740404
0.0741712
0.0741712
0.0740404
0.0737472
0.0732219
0.0723436
0.0709098
0.0685643
0.0645717
0.0568898
0.0379569
)
;
    }
    topWall
    {
        type            compressible::alphatWallFunction;
        value           nonuniform List<scalar> 
20
(
0.0379834
0.056904
0.064578
0.0685683
0.0709125
0.0723456
0.0732234
0.0737484
0.0740414
0.074172
0.0741717
0.0740408
0.0737473
0.0732219
0.0723434
0.0709095
0.068564
0.0645714
0.0568896
0.0379569
)
;
    }
    bottomWall
    {
        type            compressible::alphatWallFunction;
        value           nonuniform List<scalar> 
20
(
0.0379834
0.056904
0.064578
0.0685683
0.0709125
0.0723456
0.0732234
0.0737484
0.0740414
0.074172
0.0741717
0.0740408
0.0737473
0.0732219
0.0723434
0.0709095
0.068564
0.0645714
0.0568896
0.0379569
)
;
    }
    frontAndBackPlanes
    {
        type            empty;
    }
}


// ************************************************************************* //
