/*--------------------------------*- C++ -*----------------------------------*\
| =========                 |                                                 |
| \\      /  F ield         | OpenFOAM: The Open Source CFD Toolbox           |
|  \\    /   O peration     | Version:  2506                                  |
|   \\  /    A nd           | Website:  www.openfoam.com                      |
|    \\/     M anipulation  |                                                 |
\*---------------------------------------------------------------------------*/
FoamFile
{
    version     2.0;
    format      ascii;
    arch        "LSB;label=32;scalar=64";
    class       volScalarField;
    location    "0.774954";
    object      epsilon;
}
// * * * * * * * * * * * * * * * * * * * * * * * * * * * * * * * * * * * * * //

dimensions      [0 2 -3 0 0 0 0];

internalField   nonuniform List<scalar> 
400
(
0.0595067
0.194862
0.284114
0.336722
0.367862
0.386003
0.396294
0.401935
0.404838
0.406056
0.40605
0.404822
0.401909
0.39626
0.385962
0.367814
0.336662
0.284037
0.194729
0.0593986
0.195008
0.153522
0.174069
0.192253
0.204895
0.213018
0.217989
0.220893
0.222466
0.22315
0.223149
0.222463
0.220888
0.217983
0.21301
0.204883
0.192234
0.174033
0.153446
0.194731
0.284323
0.1741
0.174902
0.18363
0.191523
0.197296
0.201139
0.203527
0.20488
0.205485
0.205485
0.204879
0.203526
0.201139
0.197293
0.191518
0.183616
0.174873
0.174033
0.284039
0.336964
0.192299
0.183642
0.187706
0.193186
0.197768
0.201068
0.203232
0.204506
0.20509
0.20509
0.204507
0.203233
0.20107
0.197768
0.193183
0.187695
0.183616
0.192234
0.336665
0.368128
0.204947
0.191542
0.193192
0.197356
0.201265
0.204256
0.206299
0.207537
0.208114
0.208115
0.207539
0.206302
0.204259
0.201267
0.197355
0.193183
0.191518
0.204883
0.367815
0.386284
0.213074
0.197316
0.197776
0.201267
0.20482
0.207648
0.209631
0.210855
0.211433
0.211434
0.210858
0.209635
0.207652
0.204823
0.201267
0.197768
0.197293
0.213009
0.385961
0.396585
0.218046
0.20116
0.201076
0.204258
0.207648
0.210404
0.212367
0.213591
0.214174
0.214175
0.213594
0.212371
0.210409
0.207652
0.204259
0.201069
0.201138
0.217982
0.396256
0.402234
0.220951
0.203547
0.203239
0.206301
0.20963
0.212366
0.214328
0.215561
0.216149
0.21615
0.215563
0.214333
0.212371
0.209635
0.206302
0.203233
0.203525
0.220886
0.401901
0.405144
0.222525
0.2049
0.204512
0.207537
0.210854
0.213589
0.215559
0.2168
0.217393
0.217395
0.216803
0.215564
0.213595
0.210859
0.207539
0.204507
0.204878
0.22246
0.404808
0.406368
0.22321
0.205505
0.205096
0.208114
0.21143
0.214171
0.216146
0.217392
0.217989
0.21799
0.217395
0.216151
0.214176
0.211436
0.208116
0.20509
0.205484
0.223145
0.406032
0.406368
0.22321
0.205505
0.205096
0.208114
0.21143
0.214171
0.216146
0.217392
0.217989
0.21799
0.217395
0.216151
0.214176
0.211436
0.208116
0.20509
0.205484
0.223145
0.406032
0.405144
0.222525
0.2049
0.204512
0.207537
0.210854
0.213589
0.215559
0.2168
0.217394
0.217395
0.216803
0.215564
0.213595
0.210859
0.207539
0.204507
0.204878
0.22246
0.404808
0.402234
0.220951
0.203548
0.203239
0.206301
0.20963
0.212366
0.214328
0.215561
0.216149
0.21615
0.215563
0.214333
0.212371
0.209635
0.206302
0.203233
0.203525
0.220886
0.401901
0.396585
0.218046
0.20116
0.201076
0.204258
0.207648
0.210404
0.212367
0.213591
0.214174
0.214175
0.213594
0.212371
0.210409
0.207652
0.204259
0.201069
0.201138
0.217982
0.396256
0.386284
0.213074
0.197316
0.197776
0.201267
0.20482
0.207648
0.209631
0.210855
0.211433
0.211434
0.210858
0.209635
0.207652
0.204823
0.201267
0.197768
0.197293
0.213009
0.385961
0.368128
0.204947
0.191542
0.193192
0.197356
0.201265
0.204256
0.206299
0.207537
0.208114
0.208115
0.207539
0.206302
0.204259
0.201267
0.197355
0.193183
0.191518
0.204883
0.367815
0.336964
0.192299
0.183642
0.187706
0.193186
0.197768
0.201068
0.203232
0.204506
0.20509
0.20509
0.204507
0.203233
0.20107
0.197768
0.193183
0.187695
0.183616
0.192234
0.336665
0.284323
0.1741
0.174902
0.18363
0.191523
0.197296
0.201139
0.203527
0.20488
0.205485
0.205485
0.204879
0.203526
0.201139
0.197293
0.191518
0.183616
0.174873
0.174033
0.284039
0.195008
0.153522
0.174069
0.192253
0.204895
0.213018
0.217989
0.220893
0.222466
0.22315
0.223149
0.222463
0.220888
0.217983
0.21301
0.204883
0.192234
0.174033
0.153446
0.194731
0.0595067
0.194862
0.284114
0.336722
0.367862
0.386003
0.396294
0.401935
0.404838
0.406056
0.40605
0.404822
0.401909
0.39626
0.385962
0.367814
0.336662
0.284037
0.194729
0.0593986
)
;

boundaryField
{
    leftWall
    {
        type            epsilonWallFunction;
        blending        stepwise;
        value           nonuniform List<scalar> 
20
(
0.0595067
0.195008
0.284323
0.336964
0.368128
0.386284
0.396585
0.402234
0.405144
0.406368
0.406368
0.405144
0.402234
0.396585
0.386284
0.368128
0.336964
0.284323
0.195008
0.0595067
)
;
    }
    rightWall
    {
        type            epsilonWallFunction;
        blending        stepwise;
        value           nonuniform List<scalar> 
20
(
0.0593986
0.194731
0.284039
0.336665
0.367815
0.385961
0.396256
0.401901
0.404808
0.406032
0.406032
0.404808
0.401901
0.396256
0.385961
0.367815
0.336665
0.284039
0.194731
0.0593986
)
;
    }
    topWall
    {
        type            epsilonWallFunction;
        blending        stepwise;
        value           nonuniform List<scalar> 
20
(
0.0595067
0.194862
0.284114
0.336722
0.367862
0.386003
0.396294
0.401935
0.404838
0.406056
0.40605
0.404822
0.401909
0.39626
0.385962
0.367814
0.336662
0.284037
0.194729
0.0593986
)
;
    }
    bottomWall
    {
        type            epsilonWallFunction;
        blending        stepwise;
        value           nonuniform List<scalar> 
20
(
0.0595067
0.194862
0.284114
0.336722
0.367862
0.386003
0.396294
0.401935
0.404838
0.406056
0.40605
0.404822
0.401909
0.39626
0.385962
0.367814
0.336662
0.284037
0.194729
0.0593986
)
;
    }
    frontAndBackPlanes
    {
        type            empty;
    }
}


// ************************************************************************* //
