/*--------------------------------*- C++ -*----------------------------------*\
| =========                 |                                                 |
| \\      /  F ield         | OpenFOAM: The Open Source CFD Toolbox           |
|  \\    /   O peration     | Version:  2506                                  |
|   \\  /    A nd           | Website:  www.openfoam.com                      |
|    \\/     M anipulation  |                                                 |
\*---------------------------------------------------------------------------*/
FoamFile
{
    version     2.0;
    format      ascii;
    arch        "LSB;label=32;scalar=64";
    class       volScalarField;
    location    "0.774954";
    object      k;
}
// * * * * * * * * * * * * * * * * * * * * * * * * * * * * * * * * * * * * * //

dimensions      [0 2 -2 0 0 0 0];

internalField   nonuniform List<scalar> 
400
(
0.010002
0.0240606
0.0317173
0.0361614
0.038922
0.0406646
0.0417529
0.0424112
0.0427811
0.0429465
0.0429462
0.0427803
0.0424098
0.0417509
0.040662
0.0389184
0.0361564
0.0317102
0.0240474
0.00998688
0.0240726
0.0626046
0.0787269
0.0885382
0.0948404
0.0989062
0.101494
0.103089
0.104001
0.104414
0.104414
0.104001
0.103088
0.101492
0.0989028
0.0948348
0.0885291
0.0787122
0.0625822
0.0240476
0.0317328
0.0787327
0.0983743
0.11046
0.118444
0.123744
0.127203
0.129381
0.130646
0.131225
0.131225
0.130646
0.129381
0.127203
0.123742
0.11844
0.110452
0.0983608
0.0787124
0.0317106
0.0361789
0.0885485
0.110464
0.124005
0.133093
0.139244
0.143336
0.145954
0.147495
0.148207
0.148207
0.147496
0.145955
0.143336
0.139244
0.13309
0.123998
0.110452
0.0885295
0.0361568
0.0389412
0.0948536
0.118452
0.133096
0.143019
0.14982
0.154403
0.157372
0.159136
0.159956
0.159957
0.159138
0.157374
0.154405
0.149821
0.143018
0.13309
0.11844
0.0948352
0.0389187
0.040685
0.0989211
0.123753
0.139248
0.149821
0.157128
0.162098
0.165344
0.167287
0.168194
0.168195
0.167289
0.165346
0.1621
0.15713
0.149821
0.139244
0.123743
0.0989032
0.0406622
0.041774
0.10151
0.127213
0.143341
0.154405
0.162098
0.167363
0.170822
0.172904
0.173878
0.173879
0.172906
0.170825
0.167366
0.162101
0.154405
0.143337
0.127203
0.101492
0.041751
0.0424329
0.103106
0.129391
0.145959
0.157373
0.165344
0.170822
0.174437
0.176619
0.177643
0.177644
0.176621
0.17444
0.170826
0.165347
0.157374
0.145956
0.129381
0.103088
0.0424096
0.0428032
0.104018
0.130656
0.1475
0.159137
0.167286
0.172903
0.176618
0.178865
0.179922
0.179923
0.178868
0.176622
0.172907
0.16729
0.159139
0.147497
0.130646
0.104001
0.0427799
0.0429689
0.104431
0.131235
0.148211
0.159957
0.168193
0.173876
0.177641
0.179921
0.180993
0.180994
0.179923
0.177645
0.173881
0.168196
0.159958
0.148208
0.131225
0.104414
0.0429455
0.0429689
0.104431
0.131235
0.148211
0.159957
0.168193
0.173876
0.177641
0.179921
0.180993
0.180994
0.179923
0.177645
0.173881
0.168196
0.159958
0.148208
0.131225
0.104414
0.0429455
0.0428032
0.104018
0.130656
0.1475
0.159137
0.167286
0.172903
0.176618
0.178865
0.179922
0.179923
0.178868
0.176622
0.172907
0.16729
0.159139
0.147497
0.130646
0.104001
0.0427799
0.0424329
0.103106
0.129391
0.145959
0.157373
0.165344
0.170822
0.174437
0.176619
0.177643
0.177644
0.176621
0.17444
0.170826
0.165347
0.157374
0.145956
0.129381
0.103088
0.0424096
0.0417741
0.10151
0.127213
0.143341
0.154405
0.162098
0.167363
0.170822
0.172904
0.173878
0.173879
0.172906
0.170825
0.167366
0.162101
0.154405
0.143337
0.127203
0.101492
0.041751
0.040685
0.0989211
0.123753
0.139248
0.149821
0.157128
0.162098
0.165344
0.167287
0.168194
0.168195
0.167289
0.165346
0.1621
0.15713
0.149821
0.139244
0.123743
0.0989032
0.0406622
0.0389412
0.0948536
0.118452
0.133096
0.143019
0.14982
0.154403
0.157372
0.159136
0.159956
0.159957
0.159138
0.157374
0.154405
0.149821
0.143018
0.13309
0.11844
0.0948352
0.0389187
0.0361789
0.0885485
0.110464
0.124005
0.133093
0.139244
0.143336
0.145954
0.147495
0.148207
0.148207
0.147496
0.145955
0.143336
0.139244
0.13309
0.123998
0.110452
0.0885295
0.0361568
0.0317328
0.0787327
0.0983743
0.11046
0.118444
0.123744
0.127203
0.129381
0.130646
0.131225
0.131225
0.130646
0.129381
0.127203
0.123742
0.11844
0.110452
0.0983608
0.0787124
0.0317106
0.0240726
0.0626046
0.0787269
0.0885382
0.0948404
0.0989062
0.101494
0.103089
0.104001
0.104414
0.104414
0.104001
0.103088
0.101492
0.0989028
0.0948348
0.0885291
0.0787122
0.0625822
0.0240476
0.010002
0.0240606
0.0317173
0.0361614
0.038922
0.0406646
0.0417529
0.0424112
0.0427811
0.0429464
0.0429462
0.0427803
0.0424098
0.0417509
0.040662
0.0389184
0.0361564
0.0317102
0.0240474
0.00998688
)
;

boundaryField
{
    leftWall
    {
        type            kqRWallFunction;
        value           nonuniform List<scalar> 
20
(
0.010002
0.0240726
0.0317328
0.0361789
0.0389412
0.040685
0.041774
0.0424329
0.0428032
0.0429689
0.0429689
0.0428032
0.0424329
0.0417741
0.040685
0.0389412
0.0361789
0.0317328
0.0240726
0.010002
)
;
    }
    rightWall
    {
        type            kqRWallFunction;
        value           nonuniform List<scalar> 
20
(
0.00998688
0.0240476
0.0317106
0.0361568
0.0389187
0.0406622
0.041751
0.0424096
0.0427799
0.0429455
0.0429455
0.0427799
0.0424096
0.041751
0.0406622
0.0389187
0.0361568
0.0317106
0.0240476
0.00998688
)
;
    }
    topWall
    {
        type            kqRWallFunction;
        value           nonuniform List<scalar> 
20
(
0.010002
0.0240606
0.0317173
0.0361614
0.038922
0.0406646
0.0417529
0.0424112
0.0427811
0.0429465
0.0429462
0.0427803
0.0424098
0.0417509
0.040662
0.0389184
0.0361564
0.0317102
0.0240474
0.00998688
)
;
    }
    bottomWall
    {
        type            kqRWallFunction;
        value           nonuniform List<scalar> 
20
(
0.010002
0.0240606
0.0317173
0.0361614
0.038922
0.0406646
0.0417529
0.0424112
0.0427811
0.0429464
0.0429462
0.0427803
0.0424098
0.0417509
0.040662
0.0389184
0.0361564
0.0317102
0.0240474
0.00998688
)
;
    }
    frontAndBackPlanes
    {
        type            empty;
    }
}


// ************************************************************************* //
