/*--------------------------------*- C++ -*----------------------------------*\
| =========                 |                                                 |
| \\      /  F ield         | OpenFOAM: The Open Source CFD Toolbox           |
|  \\    /   O peration     | Version:  2506                                  |
|   \\  /    A nd           | Website:  www.openfoam.com                      |
|    \\/     M anipulation  |                                                 |
\*---------------------------------------------------------------------------*/
FoamFile
{
    version     2.0;
    format      ascii;
    arch        "LSB;label=32;scalar=64";
    class       volScalarField;
    location    "0.774954";
    object      nut;
}
// * * * * * * * * * * * * * * * * * * * * * * * * * * * * * * * * * * * * * //

dimensions      [0 2 -1 0 0 0 0];

internalField   nonuniform List<scalar> 
400
(
0.000151303
0.00026738
0.000318671
0.000349511
0.000370635
0.000385554
0.000395911
0.000402761
0.000406879
0.0004088
0.0004088
0.000406879
0.00040276
0.000395907
0.000385544
0.000370615
0.000349476
0.000318616
0.000267267
0.000151121
0.000267446
0.00229766
0.00320456
0.0036697
0.00395092
0.00413308
0.00425294
0.00433001
0.0043758
0.00439709
0.00439709
0.00437579
0.00432999
0.00425288
0.00413294
0.00395068
0.00366931
0.00320402
0.00229714
0.00026727
0.000318749
0.00320446
0.00497978
0.00598007
0.00659242
0.0069851
0.00724006
0.0074022
0.00749783
0.00754214
0.00754214
0.00749785
0.00740221
0.00724004
0.00698499
0.00659218
0.00597965
0.00497923
0.00320404
0.00031862
0.000349598
0.00366968
0.00598016
0.00737294
0.0082523
0.00882346
0.00919618
0.00943371
0.009574
0.00963905
0.00963907
0.00957405
0.00943378
0.00919622
0.00882341
0.00825212
0.00737258
0.00597968
0.00366934
0.000349482
0.000370733
0.00395101
0.00659265
0.00825244
0.00932779
0.0100372
0.0105046
0.0108043
0.0109821
0.0110648
0.0110648
0.0109822
0.0108045
0.0105047
0.0100372
0.00932768
0.00825214
0.00659222
0.00395072
0.000370621
0.00038566
0.00413324
0.00698543
0.0088237
0.0100373
0.0108488
0.0113886
0.0117372
0.0119449
0.0120418
0.0120418
0.011945
0.0117373
0.0113887
0.0108489
0.0100373
0.00882346
0.00698505
0.00413299
0.00038555
0.000396022
0.00425316
0.00724045
0.00919647
0.0105048
0.0113886
0.0119814
0.0123665
0.012597
0.0127048
0.0127048
0.0125972
0.0123667
0.0119816
0.0113888
0.0105048
0.00919628
0.00724011
0.00425293
0.000395913
0.000402874
0.00433025
0.00740261
0.00943402
0.0108045
0.0117372
0.0123665
0.0127773
0.0130241
0.0131397
0.0131397
0.0130242
0.0127775
0.0123667
0.0117374
0.0108045
0.00943386
0.00740229
0.00433004
0.000402766
0.000406992
0.00437604
0.00749824
0.0095743
0.0109823
0.0119449
0.012597
0.013024
0.0132812
0.0134018
0.0134019
0.0132813
0.0130243
0.0125972
0.0119451
0.0109823
0.00957417
0.00749794
0.00437585
0.000406885
0.000408913
0.00439733
0.00754254
0.00963933
0.0110649
0.0120417
0.0127047
0.0131396
0.0134017
0.0135249
0.0135249
0.0134019
0.0131398
0.012705
0.012042
0.0110649
0.00963921
0.00754225
0.00439714
0.000408806
0.000408913
0.00439733
0.00754254
0.00963933
0.0110649
0.0120417
0.0127047
0.0131396
0.0134017
0.0135249
0.0135249
0.0134019
0.0131398
0.012705
0.012042
0.0110649
0.00963921
0.00754225
0.00439714
0.000408806
0.000406992
0.00437604
0.00749824
0.0095743
0.0109823
0.0119449
0.012597
0.013024
0.0132812
0.0134018
0.0134019
0.0132813
0.0130243
0.0125972
0.0119451
0.0109823
0.00957417
0.00749794
0.00437585
0.000406885
0.000402874
0.00433025
0.00740261
0.00943402
0.0108045
0.0117372
0.0123665
0.0127773
0.0130241
0.0131397
0.0131397
0.0130242
0.0127775
0.0123667
0.0117374
0.0108045
0.00943386
0.00740229
0.00433004
0.000402766
0.000396022
0.00425316
0.00724045
0.00919647
0.0105048
0.0113886
0.0119814
0.0123665
0.012597
0.0127048
0.0127048
0.0125972
0.0123667
0.0119816
0.0113888
0.0105048
0.00919628
0.00724011
0.00425293
0.000395913
0.00038566
0.00413324
0.00698543
0.0088237
0.0100373
0.0108488
0.0113886
0.0117372
0.0119449
0.0120418
0.0120418
0.011945
0.0117373
0.0113887
0.0108489
0.0100373
0.00882346
0.00698505
0.00413299
0.00038555
0.000370733
0.00395101
0.00659265
0.00825244
0.00932779
0.0100372
0.0105046
0.0108043
0.0109821
0.0110648
0.0110648
0.0109822
0.0108045
0.0105047
0.0100372
0.00932768
0.00825214
0.00659222
0.00395072
0.000370621
0.000349598
0.00366968
0.00598016
0.00737294
0.0082523
0.00882346
0.00919618
0.00943371
0.009574
0.00963905
0.00963907
0.00957405
0.00943378
0.00919622
0.00882341
0.00825212
0.00737258
0.00597968
0.00366934
0.000349482
0.000318749
0.00320446
0.00497978
0.00598007
0.00659242
0.0069851
0.00724006
0.0074022
0.00749783
0.00754214
0.00754214
0.00749785
0.00740221
0.00724004
0.00698499
0.00659218
0.00597965
0.00497923
0.00320404
0.00031862
0.000267446
0.00229766
0.00320456
0.0036697
0.00395092
0.00413308
0.00425294
0.00433001
0.0043758
0.00439709
0.00439709
0.00437579
0.00432999
0.00425288
0.00413294
0.00395068
0.00366931
0.00320402
0.00229714
0.00026727
0.000151303
0.00026738
0.000318671
0.000349511
0.000370635
0.000385554
0.000395911
0.000402761
0.000406879
0.0004088
0.0004088
0.000406879
0.00040276
0.000395907
0.000385544
0.000370615
0.000349476
0.000318616
0.000267267
0.000151121
)
;

boundaryField
{
    leftWall
    {
        type            nutkWallFunction;
        blending        stepwise;
        value           nonuniform List<scalar> 
20
(
2.76346e-05
4.1218e-05
4.67474e-05
4.96267e-05
5.13197e-05
5.23551e-05
5.29896e-05
5.33691e-05
5.3581e-05
5.36755e-05
5.36755e-05
5.3581e-05
5.33691e-05
5.29896e-05
5.23551e-05
5.13197e-05
4.96267e-05
4.67474e-05
4.1218e-05
2.76346e-05
)
;
    }
    rightWall
    {
        type            nutkWallFunction;
        blending        stepwise;
        value           nonuniform List<scalar> 
20
(
3.22195e-05
4.82906e-05
5.48114e-05
5.82005e-05
6.01915e-05
6.14085e-05
6.21541e-05
6.25999e-05
6.28489e-05
6.29599e-05
6.29599e-05
6.28489e-05
6.25999e-05
6.21541e-05
6.14085e-05
6.01915e-05
5.82005e-05
5.48114e-05
4.82906e-05
3.22195e-05
)
;
    }
    topWall
    {
        type            nutkWallFunction;
        blending        stepwise;
        value           nonuniform List<scalar> 
20
(
3.22421e-05
4.83027e-05
5.48168e-05
5.82039e-05
6.01938e-05
6.14102e-05
6.21554e-05
6.2601e-05
6.28497e-05
6.29605e-05
6.29603e-05
6.28492e-05
6.26e-05
6.2154e-05
6.14084e-05
6.01912e-05
5.82002e-05
5.48112e-05
4.82905e-05
3.22195e-05
)
;
    }
    bottomWall
    {
        type            nutkWallFunction;
        blending        stepwise;
        value           nonuniform List<scalar> 
20
(
3.22421e-05
4.83027e-05
5.48168e-05
5.82039e-05
6.01938e-05
6.14102e-05
6.21554e-05
6.2601e-05
6.28497e-05
6.29605e-05
6.29603e-05
6.28492e-05
6.26e-05
6.2154e-05
6.14084e-05
6.01912e-05
5.82002e-05
5.48112e-05
4.82905e-05
3.22195e-05
)
;
    }
    frontAndBackPlanes
    {
        type            empty;
    }
}


// ************************************************************************* //
