/*--------------------------------*- C++ -*----------------------------------*\
| =========                 |                                                 |
| \\      /  F ield         | OpenFOAM: The Open Source CFD Toolbox           |
|  \\    /   O peration     | Version:  2506                                  |
|   \\  /    A nd           | Website:  www.openfoam.com                      |
|    \\/     M anipulation  |                                                 |
\*---------------------------------------------------------------------------*/
FoamFile
{
    version     2.0;
    format      ascii;
    arch        "LSB;label=32;scalar=64";
    class       volScalarField;
    location    "0.774954";
    object      rho;
}
// * * * * * * * * * * * * * * * * * * * * * * * * * * * * * * * * * * * * * //

dimensions      [1 -3 0 0 0 0 0];

internalField   nonuniform List<scalar> 
400
(
998.16
1000.45
1000.91
1001.09
1001.2
1001.26
1001.3
1001.32
1001.34
1001.35
1001.35
1001.35
1001.36
1001.36
1001.36
1001.36
1001.36
1001.36
1001.36
1001.36
998.852
1000.27
1000.73
1000.97
1001.11
1001.2
1001.26
1001.29
1001.32
1001.33
1001.34
1001.35
1001.35
1001.36
1001.36
1001.36
1001.36
1001.36
1001.36
1001.36
999.043
1000.25
1000.67
1000.91
1001.06
1001.16
1001.23
1001.28
1001.31
1001.33
1001.34
1001.35
1001.35
1001.35
1001.36
1001.36
1001.36
1001.36
1001.36
1001.36
999.108
1000.24
1000.64
1000.88
1001.04
1001.14
1001.21
1001.26
1001.3
1001.32
1001.33
1001.34
1001.35
1001.35
1001.36
1001.36
1001.36
1001.36
1001.36
1001.36
999.137
1000.24
1000.63
1000.86
1001.02
1001.12
1001.2
1001.25
1001.29
1001.31
1001.33
1001.34
1001.35
1001.35
1001.36
1001.36
1001.36
1001.36
1001.36
1001.36
999.153
1000.24
1000.62
1000.85
1001
1001.11
1001.19
1001.24
1001.28
1001.31
1001.33
1001.34
1001.35
1001.35
1001.35
1001.36
1001.36
1001.36
1001.36
1001.36
999.162
1000.24
1000.62
1000.84
1000.99
1001.1
1001.18
1001.24
1001.28
1001.3
1001.32
1001.34
1001.34
1001.35
1001.35
1001.36
1001.36
1001.36
1001.36
1001.36
999.168
1000.23
1000.61
1000.84
1000.99
1001.1
1001.18
1001.23
1001.27
1001.3
1001.32
1001.33
1001.34
1001.35
1001.35
1001.36
1001.36
1001.36
1001.36
1001.36
999.171
1000.23
1000.61
1000.83
1000.99
1001.1
1001.18
1001.23
1001.27
1001.3
1001.32
1001.33
1001.34
1001.35
1001.35
1001.36
1001.36
1001.36
1001.36
1001.36
999.172
1000.23
1000.61
1000.83
1000.99
1001.09
1001.17
1001.23
1001.27
1001.3
1001.32
1001.33
1001.34
1001.35
1001.35
1001.36
1001.36
1001.36
1001.36
1001.36
999.172
1000.23
1000.61
1000.83
1000.99
1001.09
1001.17
1001.23
1001.27
1001.3
1001.32
1001.33
1001.34
1001.35
1001.35
1001.36
1001.36
1001.36
1001.36
1001.36
999.171
1000.23
1000.61
1000.83
1000.99
1001.1
1001.18
1001.23
1001.27
1001.3
1001.32
1001.33
1001.34
1001.35
1001.35
1001.36
1001.36
1001.36
1001.36
1001.36
999.168
1000.23
1000.61
1000.84
1000.99
1001.1
1001.18
1001.23
1001.27
1001.3
1001.32
1001.33
1001.34
1001.35
1001.35
1001.36
1001.36
1001.36
1001.36
1001.36
999.162
1000.24
1000.62
1000.84
1000.99
1001.1
1001.18
1001.24
1001.28
1001.3
1001.32
1001.34
1001.34
1001.35
1001.35
1001.36
1001.36
1001.36
1001.36
1001.36
999.153
1000.24
1000.62
1000.85
1001
1001.11
1001.19
1001.24
1001.28
1001.31
1001.33
1001.34
1001.35
1001.35
1001.35
1001.36
1001.36
1001.36
1001.36
1001.36
999.137
1000.24
1000.63
1000.86
1001.02
1001.12
1001.2
1001.25
1001.29
1001.31
1001.33
1001.34
1001.35
1001.35
1001.36
1001.36
1001.36
1001.36
1001.36
1001.36
999.108
1000.24
1000.64
1000.88
1001.04
1001.14
1001.21
1001.26
1001.3
1001.32
1001.33
1001.34
1001.35
1001.35
1001.36
1001.36
1001.36
1001.36
1001.36
1001.36
999.043
1000.25
1000.67
1000.91
1001.06
1001.16
1001.23
1001.28
1001.31
1001.33
1001.34
1001.35
1001.35
1001.35
1001.36
1001.36
1001.36
1001.36
1001.36
1001.36
998.852
1000.27
1000.73
1000.97
1001.11
1001.2
1001.26
1001.29
1001.32
1001.33
1001.34
1001.35
1001.35
1001.36
1001.36
1001.36
1001.36
1001.36
1001.36
1001.36
998.16
1000.45
1000.91
1001.09
1001.2
1001.26
1001.3
1001.32
1001.34
1001.35
1001.35
1001.35
1001.36
1001.36
1001.36
1001.36
1001.36
1001.36
1001.36
1001.36
)
;

boundaryField
{
    leftWall
    {
        type            calculated;
        value           uniform 973.493;
    }
    rightWall
    {
        type            calculated;
        value           uniform 1001.36;
    }
    topWall
    {
        type            calculated;
        value           uniform 1001.36;
    }
    bottomWall
    {
        type            calculated;
        value           uniform 1001.36;
    }
    frontAndBackPlanes
    {
        type            empty;
    }
}


// ************************************************************************* //
