/*--------------------------------*- C++ -*----------------------------------*\
| =========                 |                                                 |
| \\      /  F ield         | OpenFOAM: The Open Source CFD Toolbox           |
|  \\    /   O peration     | Version:  2506                                  |
|   \\  /    A nd           | Website:  www.openfoam.com                      |
|    \\/     M anipulation  |                                                 |
\*---------------------------------------------------------------------------*/
FoamFile
{
    version     2.0;
    format      ascii;
    arch        "LSB;label=32;scalar=64";
    class       volScalarField;
    location    "0.774954";
    object      T;
}
// * * * * * * * * * * * * * * * * * * * * * * * * * * * * * * * * * * * * * //

dimensions      [0 0 0 1 0 0 0];

internalField   nonuniform List<scalar> 
400
(
285.825
276.682
274.829
274.078
273.662
273.41
273.254
273.157
273.097
273.059
273.036
273.022
273.013
273.008
273.005
273.003
273.002
273.001
273
273
283.083
277.4
275.565
274.598
274.02
273.654
273.419
273.267
273.17
273.107
273.067
273.041
273.026
273.016
273.01
273.006
273.003
273.002
273.001
273
282.324
277.492
275.792
274.822
274.203
273.794
273.521
273.34
273.219
273.141
273.089
273.056
273.035
273.022
273.014
273.008
273.005
273.003
273.002
273.001
282.066
277.518
275.899
274.948
274.32
273.891
273.596
273.395
273.26
273.169
273.109
273.069
273.044
273.028
273.017
273.011
273.007
273.004
273.002
273.001
281.948
277.532
275.959
275.026
274.397
273.959
273.652
273.439
273.292
273.192
273.125
273.081
273.052
273.033
273.021
273.013
273.008
273.005
273.003
273.001
281.885
277.542
275.995
275.075
274.448
274.007
273.693
273.471
273.317
273.21
273.138
273.09
273.058
273.037
273.024
273.015
273.009
273.006
273.003
273.002
281.848
277.548
276.018
275.106
274.482
274.039
273.721
273.495
273.335
273.224
273.149
273.097
273.063
273.041
273.026
273.016
273.01
273.006
273.004
273.002
281.826
277.552
276.032
275.125
274.504
274.06
273.74
273.511
273.348
273.234
273.156
273.103
273.067
273.043
273.028
273.018
273.011
273.007
273.004
273.002
281.815
277.555
276.04
275.136
274.516
274.073
273.752
273.521
273.356
273.241
273.161
273.106
273.069
273.045
273.029
273.018
273.012
273.007
273.004
273.002
281.809
277.556
276.043
275.141
274.522
274.078
273.757
273.525
273.36
273.244
273.163
273.108
273.071
273.046
273.03
273.019
273.012
273.007
273.005
273.002
281.809
277.556
276.043
275.141
274.522
274.078
273.757
273.525
273.36
273.244
273.163
273.108
273.071
273.046
273.03
273.019
273.012
273.007
273.005
273.002
281.815
277.555
276.04
275.136
274.516
274.073
273.752
273.521
273.356
273.241
273.161
273.106
273.069
273.045
273.029
273.018
273.012
273.007
273.004
273.002
281.826
277.552
276.032
275.125
274.504
274.06
273.74
273.511
273.348
273.234
273.156
273.103
273.067
273.043
273.028
273.018
273.011
273.007
273.004
273.002
281.848
277.548
276.018
275.106
274.482
274.039
273.721
273.495
273.335
273.224
273.149
273.097
273.063
273.041
273.026
273.016
273.01
273.006
273.004
273.002
281.885
277.542
275.995
275.075
274.448
274.007
273.693
273.471
273.317
273.21
273.138
273.09
273.058
273.037
273.024
273.015
273.009
273.006
273.003
273.002
281.948
277.532
275.959
275.026
274.397
273.959
273.652
273.439
273.292
273.192
273.125
273.081
273.052
273.033
273.021
273.013
273.008
273.005
273.003
273.001
282.066
277.518
275.899
274.948
274.32
273.891
273.596
273.395
273.26
273.169
273.109
273.069
273.044
273.028
273.017
273.011
273.007
273.004
273.002
273.001
282.324
277.492
275.792
274.822
274.203
273.794
273.521
273.34
273.219
273.141
273.089
273.056
273.035
273.022
273.014
273.008
273.005
273.003
273.002
273.001
283.083
277.4
275.565
274.598
274.02
273.654
273.419
273.267
273.17
273.107
273.067
273.041
273.026
273.016
273.01
273.006
273.003
273.002
273.001
273
285.825
276.682
274.829
274.078
273.662
273.41
273.254
273.157
273.097
273.059
273.036
273.022
273.013
273.008
273.005
273.003
273.002
273.001
273
273
)
;

boundaryField
{
    leftWall
    {
        type            fixedValue;
        value           uniform 373;
    }
    rightWall
    {
        type            fixedValue;
        value           uniform 273;
    }
    topWall
    {
        type            fixedValue;
        value           uniform 273;
    }
    bottomWall
    {
        type            fixedValue;
        value           uniform 273;
    }
    frontAndBackPlanes
    {
        type            empty;
    }
}


// ************************************************************************* //
