/*--------------------------------*- C++ -*----------------------------------*\
| =========                 |                                                 |
| \\      /  F ield         | OpenFOAM: The Open Source CFD Toolbox           |
|  \\    /   O peration     | Version:  2506                                  |
|   \\  /    A nd           | Website:  www.openfoam.com                      |
|    \\/     M anipulation  |                                                 |
\*---------------------------------------------------------------------------*/
FoamFile
{
    version     2.0;
    format      ascii;
    arch        "LSB;label=32;scalar=64";
    class       volScalarField;
    location    "1.557521";
    object      alphat;
}
// * * * * * * * * * * * * * * * * * * * * * * * * * * * * * * * * * * * * * //

dimensions      [1 -1 -1 0 0 0 0];

internalField   nonuniform List<scalar> 
400
(
0.100649
0.181785
0.2179
0.239798
0.255062
0.266257
0.274509
0.280384
0.284181
0.286049
0.286054
0.284196
0.280411
0.274548
0.26631
0.255133
0.239891
0.218023
0.181943
0.100874
0.181539
1.58073
2.25348
2.61674
2.84812
3.00676
3.11779
3.19375
3.24144
3.26451
3.26458
3.24166
3.19413
3.11835
3.00751
2.8491
2.61799
2.25504
1.58252
0.181948
0.217543
2.25232
3.62914
4.45529
4.99288
5.36069
5.61632
5.79002
5.89851
5.95082
5.95099
5.89901
5.79088
5.61756
5.36234
4.99497
4.45783
3.63204
2.25508
0.218031
0.239372
2.61479
4.45413
5.64482
6.44745
7.00466
7.39386
7.65862
7.82393
7.90361
7.90387
7.82469
7.65991
7.39569
7.00706
6.45041
5.64829
4.45788
2.61805
0.239901
0.254588
2.84562
4.99077
6.44636
7.45575
8.16759
8.66884
9.01116
9.22527
9.32855
9.32887
9.22624
9.01278
8.67113
8.17055
7.45935
6.45048
4.99507
2.84919
0.255145
0.265748
3.00385
5.35784
7.00265
8.16659
8.99821
9.58847
9.99342
10.2473
10.37
10.3703
10.2485
9.99531
9.59111
9.00159
8.17065
7.00721
5.36251
3.00763
0.266324
0.273973
3.11458
5.61289
7.39108
8.66697
9.58757
10.2453
10.6983
10.9831
11.1208
11.1213
10.9844
10.7004
10.2482
9.59125
8.67136
7.39595
5.6178
3.11849
0.274564
0.279829
3.19031
5.78613
7.65523
9.00858
9.99175
10.6976
11.1854
11.4926
11.6413
11.6418
11.4939
11.1876
10.7006
9.99564
9.01318
7.6603
5.79121
3.19432
0.280429
0.283611
3.23783
5.89427
7.82005
9.22212
10.245
10.9817
11.4919
11.8137
11.9696
11.9701
11.8151
11.4942
10.9849
10.249
9.22685
7.82525
5.89944
3.24189
0.284218
0.285471
3.26078
5.94634
7.89937
9.32495
10.3671
11.1188
11.6401
11.969
12.1285
12.1289
11.9704
11.6424
11.1221
10.3712
9.32974
7.90463
5.95156
3.26487
0.28608
0.285471
3.26078
5.94634
7.89937
9.32495
10.3671
11.1188
11.6401
11.969
12.1285
12.1289
11.9704
11.6424
11.1221
10.3712
9.32974
7.90463
5.95156
3.26487
0.28608
0.283611
3.23783
5.89427
7.82005
9.22212
10.245
10.9817
11.4919
11.8137
11.9696
11.9701
11.8151
11.4942
10.9849
10.249
9.22685
7.82525
5.89944
3.24189
0.284218
0.279829
3.19031
5.78613
7.65523
9.00858
9.99175
10.6976
11.1854
11.4926
11.6413
11.6418
11.4939
11.1876
10.7006
9.99564
9.01318
7.6603
5.79121
3.19432
0.280429
0.273973
3.11458
5.61289
7.39108
8.66697
9.58757
10.2453
10.6983
10.9831
11.1208
11.1213
10.9844
10.7004
10.2482
9.59125
8.67136
7.39595
5.6178
3.11849
0.274564
0.265748
3.00385
5.35784
7.00265
8.16659
8.99821
9.58847
9.99342
10.2473
10.37
10.3703
10.2485
9.99531
9.59111
9.00159
8.17065
7.00721
5.36251
3.00763
0.266324
0.254588
2.84562
4.99077
6.44636
7.45575
8.16759
8.66884
9.01116
9.22527
9.32855
9.32887
9.22624
9.01278
8.67113
8.17055
7.45935
6.45048
4.99507
2.84919
0.255145
0.239372
2.61479
4.45413
5.64482
6.44745
7.00466
7.39386
7.65862
7.82393
7.90362
7.90387
7.8247
7.65991
7.39569
7.00706
6.45041
5.64829
4.45788
2.61805
0.239901
0.217543
2.25232
3.62914
4.45529
4.99288
5.36069
5.61632
5.79002
5.8985
5.95082
5.95099
5.89902
5.79088
5.61756
5.36234
4.99497
4.45783
3.63204
2.25508
0.218031
0.181539
1.58073
2.25348
2.61674
2.84812
3.00676
3.11779
3.19375
3.24144
3.26451
3.26458
3.24166
3.19413
3.11835
3.00751
2.8491
2.61799
2.25504
1.58252
0.181948
0.100649
0.181785
0.2179
0.239798
0.255062
0.266257
0.274509
0.280384
0.284181
0.286049
0.286054
0.284196
0.280411
0.274548
0.26631
0.255133
0.239891
0.218023
0.181943
0.100874
)
;

boundaryField
{
    leftWall
    {
        type            compressible::alphatWallFunction;
        value           nonuniform List<scalar> 
20
(
0.0195573
0.0314761
0.0364818
0.0393349
0.0412082
0.0425053
0.0434118
0.0440279
0.0444118
0.0445963
0.0445963
0.0444118
0.0440279
0.0434118
0.0425053
0.0412082
0.0393349
0.0364818
0.0314761
0.0195573
)
;
    }
    rightWall
    {
        type            compressible::alphatWallFunction;
        value           nonuniform List<scalar> 
20
(
0.0231297
0.0377512
0.0438634
0.0473389
0.049618
0.0511949
0.0522964
0.0530448
0.053511
0.053735
0.053735
0.053511
0.0530448
0.0522964
0.0511949
0.049618
0.0473389
0.0438634
0.0377512
0.0231297
)
;
    }
    topWall
    {
        type            compressible::alphatWallFunction;
        value           nonuniform List<scalar> 
20
(
0.0231543
0.0377637
0.0438692
0.0473424
0.04962
0.0511958
0.0522966
0.0530445
0.0535104
0.0537342
0.053734
0.05351
0.0530437
0.0522953
0.0511938
0.0496169
0.0473379
0.0438626
0.0377507
0.0231297
)
;
    }
    bottomWall
    {
        type            compressible::alphatWallFunction;
        value           nonuniform List<scalar> 
20
(
0.0231543
0.0377637
0.0438692
0.0473424
0.04962
0.0511958
0.0522966
0.0530445
0.0535104
0.0537342
0.053734
0.05351
0.0530437
0.0522953
0.0511938
0.0496169
0.0473379
0.0438626
0.0377507
0.0231297
)
;
    }
    frontAndBackPlanes
    {
        type            empty;
    }
}


// ************************************************************************* //
