/*--------------------------------*- C++ -*----------------------------------*\
| =========                 |                                                 |
| \\      /  F ield         | OpenFOAM: The Open Source CFD Toolbox           |
|  \\    /   O peration     | Version:  2506                                  |
|   \\  /    A nd           | Website:  www.openfoam.com                      |
|    \\/     M anipulation  |                                                 |
\*---------------------------------------------------------------------------*/
FoamFile
{
    version     2.0;
    format      ascii;
    arch        "LSB;label=32;scalar=64";
    class       volScalarField;
    location    "1.557521";
    object      epsilon;
}
// * * * * * * * * * * * * * * * * * * * * * * * * * * * * * * * * * * * * * //

dimensions      [0 2 -3 0 0 0 0];

internalField   nonuniform List<scalar> 
400
(
0.0107536
0.0483055
0.0771329
0.0975971
0.112574
0.123574
0.131504
0.136972
0.140397
0.142044
0.142043
0.140394
0.136967
0.131495
0.12356
0.112555
0.0975701
0.0770984
0.0482548
0.0107202
0.0483394
0.0388951
0.0459519
0.0529126
0.058609
0.0630167
0.0662906
0.0685923
0.0700523
0.0707597
0.0707597
0.0700521
0.0685916
0.066289
0.0630136
0.0586033
0.0529031
0.0459364
0.0388683
0.0482561
0.0771873
0.0459609
0.046444
0.0497012
0.0530513
0.0559123
0.0581562
0.059787
0.0608426
0.0613599
0.0613599
0.0608426
0.0597867
0.0581554
0.0559102
0.0530471
0.0496936
0.046431
0.0459368
0.0771015
0.0976673
0.0529276
0.0497061
0.0509322
0.0530029
0.0550349
0.0567423
0.0580343
0.0588913
0.0593169
0.059317
0.0588913
0.0580341
0.0567416
0.055033
0.052999
0.0509252
0.0496938
0.0529037
0.0975747
0.11266
0.0586284
0.0530595
0.0530059
0.0542527
0.0557404
0.0570922
0.0581596
0.0588856
0.059251
0.0592511
0.0588856
0.0581595
0.0570915
0.0557386
0.054249
0.0529991
0.0530474
0.0586042
0.11256
0.123672
0.0630394
0.0559226
0.0550399
0.0557423
0.0568605
0.0579651
0.0588737
0.0595061
0.0598283
0.0598284
0.0595062
0.0588736
0.0579645
0.0568587
0.0557387
0.0550333
0.0559106
0.0630148
0.123566
0.131611
0.0663155
0.0581679
0.0567485
0.0570953
0.0579663
0.0589014
0.0596988
0.0602646
0.0605559
0.0605559
0.0602647
0.0596987
0.0589008
0.0579646
0.0570919
0.056742
0.0581561
0.0662904
0.131501
0.137086
0.0686187
0.0597995
0.0580412
0.0581634
0.0588756
0.0596995
0.0604226
0.0609432
0.0612131
0.0612132
0.0609432
0.0604225
0.0596989
0.058874
0.05816
0.0580348
0.0597877
0.0685933
0.136973
0.140515
0.0700796
0.0608556
0.0588985
0.0588897
0.0595083
0.0602657
0.0609435
0.0614362
0.061693
0.061693
0.0614363
0.0609434
0.0602651
0.0595067
0.0588863
0.0588922
0.0608437
0.0700539
0.1404
0.142164
0.0707875
0.061373
0.0593243
0.0592552
0.0598306
0.060557
0.0612135
0.0616931
0.0619435
0.0619436
0.0616932
0.0612135
0.0605564
0.0598291
0.0592519
0.059318
0.0613612
0.0707616
0.142048
0.142164
0.0707875
0.061373
0.0593243
0.0592552
0.0598306
0.060557
0.0612135
0.0616931
0.0619435
0.0619436
0.0616932
0.0612135
0.0605564
0.0598291
0.0592519
0.059318
0.0613612
0.0707616
0.142048
0.140515
0.0700796
0.0608556
0.0588985
0.0588897
0.0595083
0.0602657
0.0609435
0.0614362
0.061693
0.061693
0.0614363
0.0609434
0.0602651
0.0595067
0.0588863
0.0588922
0.0608437
0.0700539
0.1404
0.137086
0.0686187
0.0597995
0.0580412
0.0581634
0.0588756
0.0596995
0.0604226
0.0609432
0.0612131
0.0612132
0.0609432
0.0604225
0.0596989
0.058874
0.05816
0.0580348
0.0597877
0.0685933
0.136973
0.131611
0.0663155
0.0581679
0.0567485
0.0570953
0.0579663
0.0589014
0.0596988
0.0602646
0.0605559
0.0605559
0.0602647
0.0596987
0.0589008
0.0579646
0.0570919
0.056742
0.0581561
0.0662904
0.131501
0.123672
0.0630394
0.0559226
0.0550399
0.0557423
0.0568605
0.0579651
0.0588737
0.0595061
0.0598283
0.0598284
0.0595062
0.0588736
0.0579644
0.0568587
0.0557387
0.0550333
0.0559106
0.0630148
0.123566
0.11266
0.0586284
0.0530595
0.0530059
0.0542527
0.0557404
0.0570922
0.0581596
0.0588856
0.059251
0.059251
0.0588856
0.0581595
0.0570915
0.0557386
0.054249
0.0529991
0.0530474
0.0586042
0.11256
0.0976673
0.0529276
0.0497061
0.0509322
0.0530029
0.0550349
0.0567423
0.0580343
0.0588913
0.0593169
0.059317
0.0588913
0.0580341
0.0567416
0.055033
0.052999
0.0509252
0.0496938
0.0529037
0.0975747
0.0771873
0.0459609
0.046444
0.0497012
0.0530513
0.0559123
0.0581562
0.059787
0.0608426
0.0613599
0.0613599
0.0608426
0.0597867
0.0581554
0.0559102
0.0530471
0.0496936
0.046431
0.0459368
0.0771015
0.0483394
0.0388951
0.0459519
0.0529126
0.058609
0.0630167
0.0662906
0.0685923
0.0700523
0.0707597
0.0707597
0.0700521
0.0685916
0.066289
0.0630136
0.0586033
0.0529031
0.0459364
0.0388683
0.0482561
0.0107536
0.0483055
0.0771329
0.0975971
0.112574
0.123574
0.131504
0.136972
0.140397
0.142044
0.142043
0.140394
0.136967
0.131495
0.12356
0.112555
0.0975701
0.0770984
0.0482548
0.0107202
)
;

boundaryField
{
    leftWall
    {
        type            epsilonWallFunction;
        blending        stepwise;
        value           nonuniform List<scalar> 
20
(
0.0107536
0.0483394
0.0771873
0.0976673
0.11266
0.123672
0.131611
0.137086
0.140515
0.142164
0.142164
0.140515
0.137086
0.131611
0.123672
0.11266
0.0976673
0.0771873
0.0483394
0.0107536
)
;
    }
    rightWall
    {
        type            epsilonWallFunction;
        blending        stepwise;
        value           nonuniform List<scalar> 
20
(
0.0107202
0.0482561
0.0771015
0.0975747
0.11256
0.123566
0.131501
0.136973
0.1404
0.142048
0.142048
0.1404
0.136973
0.131501
0.123566
0.11256
0.0975747
0.0771015
0.0482561
0.0107202
)
;
    }
    topWall
    {
        type            epsilonWallFunction;
        blending        stepwise;
        value           nonuniform List<scalar> 
20
(
0.0107536
0.0483055
0.0771329
0.0975971
0.112574
0.123574
0.131504
0.136972
0.140397
0.142044
0.142043
0.140394
0.136967
0.131495
0.12356
0.112555
0.0975701
0.0770984
0.0482548
0.0107202
)
;
    }
    bottomWall
    {
        type            epsilonWallFunction;
        blending        stepwise;
        value           nonuniform List<scalar> 
20
(
0.0107536
0.0483055
0.0771329
0.0975971
0.112574
0.123574
0.131504
0.136972
0.140397
0.142044
0.142043
0.140394
0.136967
0.131495
0.12356
0.112555
0.0975701
0.0770984
0.0482548
0.0107202
)
;
    }
    frontAndBackPlanes
    {
        type            empty;
    }
}


// ************************************************************************* //
