/*--------------------------------*- C++ -*----------------------------------*\
| =========                 |                                                 |
| \\      /  F ield         | OpenFOAM: The Open Source CFD Toolbox           |
|  \\    /   O peration     | Version:  2506                                  |
|   \\  /    A nd           | Website:  www.openfoam.com                      |
|    \\/     M anipulation  |                                                 |
\*---------------------------------------------------------------------------*/
FoamFile
{
    version     2.0;
    format      ascii;
    arch        "LSB;label=32;scalar=64";
    class       volScalarField;
    location    "1.557521";
    object      k;
}
// * * * * * * * * * * * * * * * * * * * * * * * * * * * * * * * * * * * * * //

dimensions      [0 2 -2 0 0 0 0];

internalField   nonuniform List<scalar> 
400
(
0.00347176
0.00987745
0.0136616
0.0161191
0.0178529
0.0191099
0.0200159
0.0206447
0.0210418
0.021234
0.0212339
0.0210415
0.020644
0.0200148
0.0191082
0.0178505
0.0161158
0.0136571
0.00987012
0.00346398
0.00988191
0.0261378
0.033913
0.0392092
0.0430478
0.0458606
0.0478952
0.0493079
0.0501992
0.0506303
0.0506301
0.0501986
0.0493067
0.0478932
0.0458574
0.043043
0.0392022
0.0339032
0.026125
0.00987038
0.0136678
0.0339157
0.0432677
0.0495863
0.0542281
0.0576815
0.0602109
0.0619838
0.0631099
0.0636567
0.0636565
0.0631094
0.0619828
0.060209
0.0576784
0.0542233
0.0495792
0.0432579
0.0339036
0.0136576
0.0161267
0.0392147
0.0495891
0.0565024
0.0615958
0.0654171
0.0682411
0.0702357
0.0715097
0.0721305
0.0721304
0.0715092
0.0702347
0.0682393
0.065414
0.061591
0.0564953
0.0495795
0.0392029
0.0161165
0.017862
0.0430556
0.0542334
0.0615983
0.0670144
0.0710911
0.0741191
0.0762684
0.0776469
0.0783203
0.0783202
0.0776465
0.0762675
0.0741173
0.071088
0.0670095
0.0615913
0.0542238
0.0430439
0.0178514
0.0191201
0.0458703
0.0576888
0.0654216
0.0710931
0.075365
0.0785457
0.0808099
0.0822658
0.0829782
0.0829781
0.0822653
0.0808089
0.0785438
0.0753619
0.0710883
0.0654146
0.0576792
0.0458585
0.0191091
0.020027
0.0479063
0.0602197
0.0682471
0.0741226
0.0785472
0.0818448
0.0841958
0.0857096
0.0864512
0.086451
0.0857092
0.0841948
0.081843
0.0785441
0.0741178
0.06824
0.06021
0.0478944
0.0200157
0.0206565
0.04932
0.0619936
0.0702427
0.0762731
0.0808126
0.0841969
0.0866115
0.0881674
0.08893
0.0889299
0.0881669
0.0866104
0.084195
0.0808094
0.0762682
0.0702356
0.0619839
0.0493079
0.020645
0.021054
0.050212
0.0631204
0.0715175
0.0776523
0.0822691
0.0857114
0.0881681
0.0897518
0.0905282
0.0905281
0.0897513
0.0881671
0.0857095
0.0822659
0.0776473
0.0715103
0.0631106
0.0501999
0.0210424
0.0212465
0.0506435
0.0636675
0.0721386
0.078326
0.0829819
0.0864534
0.0889311
0.0905286
0.0913119
0.0913117
0.0905281
0.0889301
0.0864514
0.0829787
0.0783211
0.0721314
0.0636577
0.0506313
0.0212348
0.0212465
0.0506435
0.0636675
0.0721386
0.078326
0.0829819
0.0864534
0.0889311
0.0905286
0.0913119
0.0913117
0.0905281
0.0889301
0.0864514
0.0829787
0.0783211
0.0721314
0.0636577
0.0506313
0.0212348
0.021054
0.050212
0.0631204
0.0715175
0.0776523
0.0822691
0.0857114
0.0881681
0.0897518
0.0905282
0.0905281
0.0897513
0.0881671
0.0857095
0.0822659
0.0776473
0.0715103
0.0631106
0.0501999
0.0210424
0.0206565
0.04932
0.0619936
0.0702427
0.0762731
0.0808126
0.0841969
0.0866115
0.0881674
0.08893
0.0889299
0.0881669
0.0866104
0.084195
0.0808094
0.0762682
0.0702356
0.0619839
0.0493079
0.020645
0.020027
0.0479063
0.0602197
0.0682471
0.0741226
0.0785472
0.0818448
0.0841958
0.0857096
0.0864512
0.086451
0.0857092
0.0841948
0.0818429
0.0785441
0.0741178
0.06824
0.06021
0.0478944
0.0200157
0.0191201
0.0458703
0.0576888
0.0654216
0.0710931
0.075365
0.0785457
0.0808099
0.0822658
0.0829782
0.0829781
0.0822653
0.0808089
0.0785438
0.0753619
0.0710883
0.0654146
0.0576792
0.0458585
0.0191091
0.017862
0.0430556
0.0542334
0.0615983
0.0670144
0.0710911
0.0741191
0.0762684
0.0776469
0.0783203
0.0783202
0.0776465
0.0762675
0.0741173
0.071088
0.0670095
0.0615913
0.0542238
0.0430439
0.0178514
0.0161267
0.0392147
0.0495891
0.0565024
0.0615958
0.0654171
0.0682411
0.0702356
0.0715097
0.0721305
0.0721304
0.0715092
0.0702347
0.0682393
0.065414
0.061591
0.0564953
0.0495795
0.0392029
0.0161165
0.0136678
0.0339157
0.0432677
0.0495863
0.0542281
0.0576815
0.0602109
0.0619838
0.0631099
0.0636567
0.0636565
0.0631094
0.0619828
0.060209
0.0576784
0.0542233
0.0495792
0.0432579
0.0339036
0.0136576
0.00988191
0.0261378
0.033913
0.0392092
0.0430478
0.0458606
0.0478952
0.0493079
0.0501992
0.0506303
0.0506301
0.0501986
0.0493067
0.0478932
0.0458574
0.043043
0.0392022
0.0339032
0.026125
0.00987038
0.00347176
0.00987745
0.0136616
0.0161191
0.0178529
0.0191099
0.0200159
0.0206447
0.0210418
0.021234
0.0212339
0.0210415
0.020644
0.0200148
0.0191082
0.0178505
0.0161158
0.0136571
0.00987012
0.00346398
)
;

boundaryField
{
    leftWall
    {
        type            kqRWallFunction;
        value           nonuniform List<scalar> 
20
(
0.00347176
0.00988191
0.0136678
0.0161267
0.017862
0.0191201
0.020027
0.0206565
0.021054
0.0212465
0.0212465
0.021054
0.0206565
0.020027
0.0191201
0.017862
0.0161267
0.0136678
0.00988191
0.00347176
)
;
    }
    rightWall
    {
        type            kqRWallFunction;
        value           nonuniform List<scalar> 
20
(
0.00346398
0.00987038
0.0136576
0.0161165
0.0178514
0.0191091
0.0200157
0.020645
0.0210424
0.0212348
0.0212348
0.0210424
0.020645
0.0200157
0.0191091
0.0178514
0.0161165
0.0136576
0.00987038
0.00346398
)
;
    }
    topWall
    {
        type            kqRWallFunction;
        value           nonuniform List<scalar> 
20
(
0.00347176
0.00987745
0.0136616
0.0161191
0.0178529
0.0191099
0.0200159
0.0206447
0.0210418
0.021234
0.0212339
0.0210415
0.020644
0.0200148
0.0191082
0.0178505
0.0161158
0.0136571
0.00987012
0.00346398
)
;
    }
    bottomWall
    {
        type            kqRWallFunction;
        value           nonuniform List<scalar> 
20
(
0.00347176
0.00987745
0.0136616
0.0161191
0.0178529
0.0191099
0.0200159
0.0206447
0.0210418
0.021234
0.0212339
0.0210415
0.020644
0.0200148
0.0191082
0.0178505
0.0161158
0.0136571
0.00987012
0.00346398
)
;
    }
    frontAndBackPlanes
    {
        type            empty;
    }
}


// ************************************************************************* //
