/*--------------------------------*- C++ -*----------------------------------*\
| =========                 |                                                 |
| \\      /  F ield         | OpenFOAM: The Open Source CFD Toolbox           |
|  \\    /   O peration     | Version:  2506                                  |
|   \\  /    A nd           | Website:  www.openfoam.com                      |
|    \\/     M anipulation  |                                                 |
\*---------------------------------------------------------------------------*/
FoamFile
{
    version     2.0;
    format      ascii;
    arch        "LSB;label=32;scalar=64";
    class       volScalarField;
    location    "1.557521";
    object      nut;
}
// * * * * * * * * * * * * * * * * * * * * * * * * * * * * * * * * * * * * * //

dimensions      [0 2 -1 0 0 0 0];

internalField   nonuniform List<scalar> 
400
(
0.000100876
0.000181776
0.000217773
0.000239599
0.000254813
0.000265969
0.000274192
0.000280046
0.000283826
0.000285684
0.000285683
0.000283822
0.000280038
0.000274181
0.000265953
0.000254789
0.000239567
0.000217728
0.000181697
0.000100737
0.000181812
0.00158084
0.00225254
0.00261493
0.00284564
0.00300377
0.00311441
0.00319007
0.00323753
0.00326045
0.00326043
0.00323746
0.00318994
0.00311422
0.0030035
0.00284528
0.00261446
0.002252
0.00158038
0.000181701
0.000217819
0.00225246
0.00362777
0.00445245
0.00498879
0.0053556
0.00561043
0.00578352
0.00589155
0.00594355
0.00594352
0.00589145
0.00578335
0.00561017
0.00535523
0.00498829
0.00445185
0.00362715
0.00225203
0.000217736
0.000239654
0.00261491
0.00445252
0.00564136
0.00644237
0.00699822
0.00738632
0.00765021
0.00781486
0.00789408
0.00789405
0.00781475
0.00765001
0.00738601
0.0069978
0.00644182
0.00564073
0.00445189
0.00261452
0.000239577
0.000254878
0.00284573
0.004989
0.00644252
0.00745002
0.00816024
0.00866016
0.00900142
0.00921472
0.00931743
0.00931739
0.0092146
0.0090012
0.00865983
0.00815979
0.00744945
0.00644187
0.00498837
0.00284536
0.0002548
0.000266043
0.00300396
0.00535597
0.00699855
0.00816042
0.00899025
0.00957901
0.00998276
0.0102358
0.0103577
0.0103577
0.0102356
0.00998253
0.00957867
0.00898978
0.00815983
0.00699787
0.00535533
0.00300359
0.000265965
0.000274273
0.00311468
0.00561094
0.00738681
0.00866052
0.00957919
0.0102353
0.010687
0.0109708
0.0111078
0.0111078
0.0109707
0.0106868
0.0102349
0.0095787
0.0086599
0.00738612
0.00561028
0.0031143
0.000274193
0.000280132
0.00319041
0.00578414
0.00765084
0.00900193
0.00998309
0.0106872
0.0111736
0.0114798
0.0116277
0.0116277
0.0114796
0.0111734
0.0106868
0.00998258
0.00900129
0.00765012
0.00578347
0.00319003
0.000280051
0.000283917
0.00323792
0.00589225
0.00781559
0.00921534
0.0102362
0.0109711
0.0114799
0.0118006
0.0119557
0.0119556
0.0118005
0.0114796
0.0109707
0.0102357
0.00921469
0.00781487
0.00589157
0.00323754
0.000283834
0.000285777
0.00326087
0.0059443
0.00789488
0.00931812
0.0103582
0.0111082
0.0116279
0.0119558
0.0121144
0.0121143
0.0119556
0.0116277
0.0111078
0.0103577
0.00931746
0.00789415
0.00594362
0.00326049
0.000285694
0.000285777
0.00326087
0.0059443
0.00789488
0.00931812
0.0103582
0.0111082
0.0116279
0.0119558
0.0121144
0.0121143
0.0119556
0.0116277
0.0111078
0.0103577
0.00931746
0.00789415
0.00594362
0.00326049
0.000285694
0.000283917
0.00323792
0.00589225
0.00781559
0.00921534
0.0102362
0.0109711
0.0114799
0.0118006
0.0119557
0.0119556
0.0118005
0.0114796
0.0109707
0.0102357
0.00921469
0.00781487
0.00589157
0.00323754
0.000283834
0.000280132
0.00319041
0.00578414
0.00765084
0.00900193
0.00998309
0.0106872
0.0111736
0.0114798
0.0116277
0.0116277
0.0114796
0.0111734
0.0106868
0.00998258
0.00900129
0.00765012
0.00578347
0.00319003
0.000280051
0.000274273
0.00311468
0.00561094
0.00738681
0.00866052
0.00957919
0.0102353
0.010687
0.0109708
0.0111078
0.0111078
0.0109707
0.0106868
0.0102349
0.0095787
0.0086599
0.00738612
0.00561028
0.0031143
0.000274193
0.000266043
0.00300396
0.00535597
0.00699855
0.00816042
0.00899025
0.00957901
0.00998276
0.0102358
0.0103577
0.0103577
0.0102356
0.00998253
0.00957867
0.00898978
0.00815983
0.00699787
0.00535533
0.00300359
0.000265965
0.000254878
0.00284573
0.004989
0.00644252
0.00745002
0.00816024
0.00866016
0.00900142
0.00921472
0.00931743
0.00931739
0.0092146
0.0090012
0.00865983
0.00815979
0.00744945
0.00644187
0.00498837
0.00284536
0.0002548
0.000239654
0.00261491
0.00445252
0.00564136
0.00644237
0.00699822
0.00738631
0.00765021
0.00781486
0.00789408
0.00789405
0.00781475
0.00765001
0.00738601
0.0069978
0.00644182
0.00564073
0.00445189
0.00261452
0.000239577
0.000217819
0.00225246
0.00362777
0.00445245
0.00498879
0.0053556
0.00561043
0.00578352
0.00589155
0.00594355
0.00594352
0.00589145
0.00578335
0.00561017
0.00535523
0.00498829
0.00445185
0.00362715
0.00225203
0.000217736
0.000181812
0.00158084
0.00225254
0.00261493
0.00284564
0.00300377
0.00311441
0.00319007
0.00323753
0.00326045
0.00326043
0.00323746
0.00318994
0.00311422
0.0030035
0.00284528
0.00261446
0.002252
0.00158038
0.000181701
0.000100876
0.000181776
0.000217772
0.000239599
0.000254813
0.000265969
0.000274192
0.000280046
0.000283826
0.000285684
0.000285683
0.000283822
0.000280038
0.000274181
0.000265953
0.000254789
0.000239567
0.000217728
0.000181697
0.000100737
)
;

boundaryField
{
    leftWall
    {
        type            nutkWallFunction;
        blending        stepwise;
        value           nonuniform List<scalar> 
20
(
1.70764e-05
2.74832e-05
3.18539e-05
3.43451e-05
3.59807e-05
3.71133e-05
3.79048e-05
3.84428e-05
3.87779e-05
3.8939e-05
3.8939e-05
3.87779e-05
3.84428e-05
3.79048e-05
3.71133e-05
3.59807e-05
3.43451e-05
3.18539e-05
2.74832e-05
1.70764e-05
)
;
    }
    rightWall
    {
        type            nutkWallFunction;
        blending        stepwise;
        value           nonuniform List<scalar> 
20
(
1.96335e-05
3.20449e-05
3.72333e-05
4.01834e-05
4.2118e-05
4.34566e-05
4.43915e-05
4.50268e-05
4.54226e-05
4.56127e-05
4.56127e-05
4.54226e-05
4.50268e-05
4.43915e-05
4.34566e-05
4.2118e-05
4.01834e-05
3.72333e-05
3.20449e-05
1.96335e-05
)
;
    }
    topWall
    {
        type            nutkWallFunction;
        blending        stepwise;
        value           nonuniform List<scalar> 
20
(
1.96544e-05
3.20555e-05
3.72382e-05
4.01864e-05
4.21197e-05
4.34574e-05
4.43917e-05
4.50266e-05
4.54221e-05
4.5612e-05
4.56119e-05
4.54217e-05
4.50259e-05
4.43906e-05
4.34556e-05
4.21171e-05
4.01826e-05
3.72326e-05
3.20445e-05
1.96335e-05
)
;
    }
    bottomWall
    {
        type            nutkWallFunction;
        blending        stepwise;
        value           nonuniform List<scalar> 
20
(
1.96544e-05
3.20555e-05
3.72382e-05
4.01864e-05
4.21197e-05
4.34574e-05
4.43917e-05
4.50266e-05
4.54221e-05
4.5612e-05
4.56119e-05
4.54217e-05
4.50259e-05
4.43906e-05
4.34556e-05
4.21171e-05
4.01826e-05
3.72326e-05
3.20445e-05
1.96335e-05
)
;
    }
    frontAndBackPlanes
    {
        type            empty;
    }
}


// ************************************************************************* //
