/*--------------------------------*- C++ -*----------------------------------*\
| =========                 |                                                 |
| \\      /  F ield         | OpenFOAM: The Open Source CFD Toolbox           |
|  \\    /   O peration     | Version:  2506                                  |
|   \\  /    A nd           | Website:  www.openfoam.com                      |
|    \\/     M anipulation  |                                                 |
\*---------------------------------------------------------------------------*/
FoamFile
{
    version     2.0;
    format      ascii;
    arch        "LSB;label=32;scalar=64";
    class       surfaceScalarField;
    location    "1.557521";
    object      phi;
}
// * * * * * * * * * * * * * * * * * * * * * * * * * * * * * * * * * * * * * //

dimensions      [1 0 -1 0 0 0 0];

oriented        oriented;

internalField   nonuniform List<scalar> 
760
(
-9.3174e-06
-1.21444e-05
-2.94066e-06
-6.87354e-06
-2.87304e-07
-5.05487e-06
1.26985e-06
-4.48878e-06
2.17461e-06
-3.90366e-06
2.69649e-06
-3.38283e-06
2.98572e-06
-2.93352e-06
3.12631e-06
-2.54393e-06
3.16729e-06
-2.20679e-06
3.1395e-06
-1.91709e-06
3.0635e-06
-1.67032e-06
2.95337e-06
-1.46245e-06
2.81878e-06
-1.29019e-06
2.66635e-06
-1.15148e-06
2.50056e-06
-1.04623e-06
2.3234e-06
-9.75352e-07
2.14167e-06
-9.39888e-07
2.03826e-06
-9.93937e-07
2.33814e-06
-1.46988e-06
-2.3152e-06
-2.71692e-06
-8.29755e-06
-1.80326e-06
-6.69114e-06
-5.28778e-07
-5.31727e-06
3.81165e-07
-4.47625e-06
1.08201e-06
-3.77652e-06
1.61337e-06
-3.18329e-06
2.00299e-06
-2.68891e-06
2.27843e-06
-2.2783e-06
2.46248e-06
-1.9368e-06
2.57334e-06
-1.65302e-06
2.626e-06
-1.41812e-06
2.633e-06
-1.22528e-06
2.60503e-06
-1.06956e-06
2.55149e-06
-9.4819e-07
2.48079e-06
-8.60987e-07
2.40199e-06
-8.10527e-07
2.3353e-06
-8.1005e-07
2.31105e-06
-9.24944e-07
2.16081e-06
-1.29013e-06
-1.59754e-06
-9.44077e-07
-6.84137e-06
-9.00481e-07
-5.73468e-06
-4.7774e-07
-4.78379e-06
1.14319e-09
-4.0563e-06
4.80901e-07
-3.42795e-06
9.25473e-07
-2.87938e-06
1.31188e-06
-2.41172e-06
1.63116e-06
-2.01991e-06
1.8832e-06
-1.69466e-06
2.07255e-06
-1.42662e-06
2.20621e-06
-1.20756e-06
2.29231e-06
-1.03071e-06
2.33927e-06
-8.91033e-07
2.35521e-06
-7.8559e-07
2.3475e-06
-7.13944e-07
2.32301e-06
-6.78965e-07
2.28664e-06
-6.92854e-07
2.21368e-06
-7.92454e-07
1.98176e-06
-1.01654e-06
-1.18477e-06
-1.04933e-06
-5.77259e-06
-9.40118e-07
-4.90733e-06
-6.73651e-07
-4.13692e-06
-3.29583e-07
-3.52483e-06
5.5954e-08
-2.99177e-06
4.50208e-07
-2.51847e-06
8.2503e-07
-2.10636e-06
1.16156e-06
-1.75536e-06
1.44991e-06
-1.46135e-06
1.6868e-06
-1.21849e-06
1.87348e-06
-1.02071e-06
2.01402e-06
-8.62524e-07
2.11402e-06
-7.39586e-07
2.17952e-06
-6.4915e-07
2.21603e-06
-5.90439e-07
2.22742e-06
-5.65277e-07
2.21202e-06
-5.81069e-07
2.1478e-06
-6.55383e-07
1.98352e-06
-7.99436e-07
-9.0245e-07
-1.22347e-06
-4.7416e-06
-1.14601e-06
-4.09019e-06
-9.26723e-07
-3.47358e-06
-6.26877e-07
-2.96738e-06
-2.78546e-07
-2.525e-06
9.16172e-08
-2.13014e-06
4.58954e-07
-1.78226e-06
8.03966e-07
-1.48224e-06
1.11368e-06
-1.22856e-06
1.38104e-06
-1.01793e-06
1.60366e-06
-8.46324e-07
1.78254e-06
-7.09726e-07
1.92075e-06
-6.047e-07
2.02227e-06
-5.28856e-07
2.09086e-06
-4.81143e-07
2.12865e-06
-4.62154e-07
2.13318e-06
-4.75352e-07
2.09078e-06
-5.28121e-07
1.97593e-06
-6.21643e-07
-6.84406e-07
-1.35729e-06
-3.74084e-06
-1.31565e-06
-3.26505e-06
-1.13412e-06
-2.79353e-06
-8.63359e-07
-2.39373e-06
-5.37128e-07
-2.04093e-06
-1.81607e-07
-1.72471e-06
1.80231e-07
-1.44417e-06
5.29426e-07
-1.20019e-06
8.52044e-07
-9.92352e-07
1.13916e-06
-8.18923e-07
1.38616e-06
-6.77382e-07
1.59184e-06
-5.64949e-07
1.75725e-06
-4.79067e-07
1.88467e-06
-4.17774e-07
1.97648e-06
-3.79889e-07
2.03395e-06
-3.6511e-07
2.05527e-06
-3.74415e-07
2.03255e-06
-4.10061e-07
1.95247e-06
-4.69774e-07
-5.09015e-07
-1.46891e-06
-2.77326e-06
-1.4432e-06
-2.44242e-06
-1.28704e-06
-2.10201e-06
-1.03811e-06
-1.80665e-06
-7.28373e-07
-1.54323e-06
-3.83874e-07
-1.30597e-06
-2.6982e-08
-1.09445e-06
3.23685e-07
-9.09439e-07
6.53812e-07
-7.50981e-07
9.53453e-07
-6.18224e-07
1.21661e-06
-5.09665e-07
1.44053e-06
-4.23487e-07
1.6248e-06
-3.579e-07
1.77042e-06
-3.11394e-07
1.87884e-06
-2.82855e-07
1.95096e-06
-2.71559e-07
1.98598e-06
-2.77247e-07
1.97991e-06
-2.99977e-07
1.92641e-06
-3.37123e-07
-3.62075e-07
-1.55377e-06
-1.83276e-06
-1.53495e-06
-1.62479e-06
-1.39385e-06
-1.40418e-06
-1.15981e-06
-1.20979e-06
-8.62045e-07
-1.03494e-06
-5.25894e-07
-8.76796e-07
-1.73297e-07
-7.35303e-07
1.77347e-07
-6.11069e-07
5.11552e-07
-5.04279e-07
8.18788e-07
-4.14553e-07
1.09219e-06
-3.41062e-07
1.32799e-06
-2.82722e-07
1.52478e-06
-2.38401e-07
1.68269e-06
-2.0707e-07
1.80259e-06
-1.87869e-07
1.88533e-06
-1.80071e-07
1.93098e-06
-1.83074e-07
1.93802e-06
-1.96318e-07
1.90362e-06
-2.17886e-07
-2.32942e-07
-1.60946e-06
-9.11395e-07
-1.59367e-06
-8.11244e-07
-1.46112e-06
-7.02886e-07
-1.23631e-06
-6.06502e-07
-9.4636e-07
-5.19348e-07
-6.15896e-07
-4.40295e-07
-2.66501e-07
-3.69413e-07
8.35833e-08
-3.07041e-07
4.19787e-07
-2.53313e-07
7.3126e-07
-2.08093e-07
1.01063e-06
-1.71017e-07
1.25352e-06
-1.41579e-07
1.45791e-06
-1.19231e-07
1.62341e-06
-1.03452e-07
1.75057e-06
-9.37751e-08
1.84027e-06
-8.97642e-08
1.89319e-06
-9.09989e-08
1.90918e-06
-9.70544e-08
1.88696e-06
-1.06963e-07
-1.1411e-07
-1.6369e-06
2.69504e-12
-1.62214e-06
2.73766e-12
-1.49349e-06
2.7022e-12
-1.27311e-06
2.76e-12
-9.87043e-07
2.88202e-12
-6.59474e-07
3.05216e-12
-3.11792e-07
3.25313e-12
3.78447e-08
3.46234e-12
3.74835e-07
3.64837e-12
6.88184e-07
3.77195e-12
9.70287e-07
3.77379e-12
1.21648e-06
3.65535e-12
1.42445e-06
3.4584e-12
1.59356e-06
3.20492e-12
1.72424e-06
2.93573e-12
1.81741e-06
2.6735e-12
1.87401e-06
2.4405e-12
1.8945e-06
2.24843e-12
1.8782e-06
2.08668e-12
1.8201e-12
-1.6369e-06
9.114e-07
-1.62214e-06
8.1125e-07
-1.49349e-06
7.02892e-07
-1.27311e-06
6.06507e-07
-9.87043e-07
5.19353e-07
-6.59474e-07
4.40301e-07
-3.11792e-07
3.6942e-07
3.78448e-08
3.07047e-07
3.74835e-07
2.5332e-07
6.88184e-07
2.08101e-07
9.70287e-07
1.71024e-07
1.21648e-06
1.41586e-07
1.42445e-06
1.19238e-07
1.59356e-06
1.03458e-07
1.72424e-06
9.37809e-08
1.81741e-06
8.97695e-08
1.87401e-06
9.10037e-08
1.8945e-06
9.70588e-08
1.8782e-06
1.06967e-07
1.14113e-07
-1.60946e-06
1.83277e-06
-1.59367e-06
1.6248e-06
-1.46112e-06
1.40419e-06
-1.23631e-06
1.20979e-06
-9.46359e-07
1.03495e-06
-6.15895e-07
8.76801e-07
-2.665e-07
7.35309e-07
8.35837e-08
6.11076e-07
4.19787e-07
5.04286e-07
7.31261e-07
4.1456e-07
1.01063e-06
3.41069e-07
1.25352e-06
2.82729e-07
1.45791e-06
2.38407e-07
1.62341e-06
2.07075e-07
1.75057e-06
1.87874e-07
1.84027e-06
1.80076e-07
1.89319e-06
1.83078e-07
1.90918e-06
1.96322e-07
1.88696e-06
2.1789e-07
2.32945e-07
-1.55376e-06
2.77326e-06
-1.53495e-06
2.44243e-06
-1.39385e-06
2.10201e-06
-1.15981e-06
1.80665e-06
-8.62043e-07
1.54323e-06
-5.25892e-07
1.30598e-06
-1.73296e-07
1.09446e-06
1.77348e-07
9.09445e-07
5.11552e-07
7.50987e-07
8.18788e-07
6.18231e-07
1.09219e-06
5.09671e-07
1.32799e-06
4.23493e-07
1.52478e-06
3.57906e-07
1.68269e-06
3.114e-07
1.80259e-06
2.8286e-07
1.88533e-06
2.71563e-07
1.93097e-06
2.77251e-07
1.93802e-06
2.99981e-07
1.90362e-06
3.37127e-07
3.62078e-07
-1.46891e-06
3.74085e-06
-1.44319e-06
3.26506e-06
-1.28703e-06
2.79353e-06
-1.03811e-06
2.39373e-06
-7.28372e-07
2.04093e-06
-3.83873e-07
1.72471e-06
-2.69806e-08
1.44418e-06
3.23686e-07
1.2002e-06
6.53813e-07
9.92357e-07
9.53453e-07
8.18929e-07
1.21661e-06
6.77388e-07
1.44052e-06
5.64954e-07
1.6248e-06
4.79072e-07
1.77042e-06
4.17779e-07
1.87883e-06
3.79893e-07
1.95096e-06
3.65114e-07
1.98598e-06
3.74418e-07
1.97991e-06
4.10064e-07
1.92641e-06
4.69777e-07
5.09017e-07
-1.35729e-06
4.7416e-06
-1.31565e-06
4.09019e-06
-1.13412e-06
3.47358e-06
-8.63356e-07
2.96738e-06
-5.37125e-07
2.525e-06
-1.81605e-07
2.13014e-06
1.80233e-07
1.78226e-06
5.29427e-07
1.48225e-06
8.52045e-07
1.22856e-06
1.13916e-06
1.01793e-06
1.38616e-06
8.46328e-07
1.59184e-06
7.09731e-07
1.75725e-06
6.04704e-07
1.88467e-06
5.2886e-07
1.97648e-06
4.81146e-07
2.03395e-06
4.62157e-07
2.05527e-06
4.75355e-07
2.03254e-06
5.28123e-07
1.95247e-06
6.21645e-07
6.84408e-07
-1.22347e-06
5.77259e-06
-1.146e-06
4.90733e-06
-9.2672e-07
4.13693e-06
-6.26874e-07
3.52483e-06
-2.78543e-07
2.99177e-06
9.16196e-08
2.51848e-06
4.58956e-07
2.10636e-06
8.03968e-07
1.75537e-06
1.11368e-06
1.46136e-06
1.38104e-06
1.21849e-06
1.60366e-06
1.02071e-06
1.78254e-06
8.62527e-07
1.92075e-06
7.39589e-07
2.02227e-06
6.49152e-07
2.09086e-06
5.90442e-07
2.12865e-06
5.6528e-07
2.13318e-06
5.81071e-07
2.09078e-06
6.55384e-07
1.97593e-06
7.99437e-07
9.02451e-07
-1.04933e-06
6.84137e-06
-9.40115e-07
5.73468e-06
-6.73648e-07
4.78379e-06
-3.2958e-07
4.0563e-06
5.5957e-08
3.42795e-06
4.5021e-07
2.87938e-06
8.25033e-07
2.41172e-06
1.16157e-06
2.01991e-06
1.44991e-06
1.69466e-06
1.6868e-06
1.42663e-06
1.87348e-06
1.20757e-06
2.01402e-06
1.03072e-06
2.11402e-06
8.91034e-07
2.17952e-06
7.85591e-07
2.21603e-06
7.13946e-07
2.22742e-06
6.78967e-07
2.21201e-06
6.92855e-07
2.14779e-06
7.92455e-07
1.98352e-06
1.01654e-06
1.18477e-06
-9.44074e-07
8.29755e-06
-9.00478e-07
6.69114e-06
-4.77737e-07
5.31727e-06
1.14654e-09
4.47626e-06
4.80904e-07
3.77652e-06
9.25476e-07
3.18329e-06
1.31188e-06
2.68891e-06
1.63116e-06
2.27831e-06
1.8832e-06
1.9368e-06
2.07255e-06
1.65302e-06
2.20621e-06
1.41812e-06
2.29231e-06
1.22528e-06
2.33927e-06
1.06956e-06
2.35521e-06
9.48191e-07
2.3475e-06
8.60988e-07
2.32301e-06
8.10528e-07
2.28664e-06
8.10051e-07
2.21368e-06
9.24945e-07
1.98175e-06
1.29013e-06
1.59754e-06
-2.71692e-06
1.21444e-05
-1.80325e-06
6.87354e-06
-5.28775e-07
5.05487e-06
3.81168e-07
4.48878e-06
1.08202e-06
3.90366e-06
1.61337e-06
3.38283e-06
2.00299e-06
2.93352e-06
2.27844e-06
2.54393e-06
2.46248e-06
2.20679e-06
2.57334e-06
1.91709e-06
2.626e-06
1.67032e-06
2.633e-06
1.46245e-06
2.60503e-06
1.29019e-06
2.55149e-06
1.15148e-06
2.48078e-06
1.04623e-06
2.40199e-06
9.75352e-07
2.33529e-06
9.39888e-07
2.31105e-06
9.93937e-07
2.16081e-06
1.46988e-06
2.3152e-06
-9.31739e-06
-2.94066e-06
-2.87301e-07
1.26985e-06
2.17461e-06
2.6965e-06
2.98572e-06
3.12632e-06
3.1673e-06
3.1395e-06
3.0635e-06
2.95337e-06
2.81878e-06
2.66634e-06
2.50056e-06
2.32339e-06
2.14167e-06
2.03826e-06
2.33814e-06
)
;

boundaryField
{
    leftWall
    {
        type            calculated;
        value           nonuniform List<scalar> 
20
(
1.11931e-05
2.83762e-10
4.86381e-07
9.07695e-07
1.0789e-06
1.21702e-06
1.34401e-06
1.4435e-06
1.51019e-06
1.54353e-06
1.54353e-06
1.51019e-06
1.4435e-06
1.34401e-06
1.21702e-06
1.0789e-06
9.07693e-07
4.86379e-07
2.82057e-10
1.11931e-05
)
;
    }
    rightWall
    {
        type            calculated;
        value           nonuniform List<scalar> 
20
(
2.32807e-06
1.45703e-06
1.59219e-06
1.73273e-06
1.79694e-06
1.82274e-06
1.83064e-06
1.82993e-06
1.82649e-06
1.82393e-06
1.82393e-06
1.82649e-06
1.82993e-06
1.83064e-06
1.82273e-06
1.79694e-06
1.73273e-06
1.59219e-06
1.45703e-06
2.32807e-06
)
;
    }
    topWall
    {
        type            calculated;
        value           nonuniform List<scalar> 
20
(
1.15135e-05
1.75382e-06
3.47395e-06
3.85266e-06
3.7884e-06
3.53053e-06
3.20427e-06
2.86466e-06
2.54015e-06
2.24413e-06
1.98203e-06
1.75551e-06
1.5646e-06
1.40906e-06
1.28962e-06
1.20847e-06
1.16058e-06
1.12285e-06
1.18409e-06
2.32807e-06
)
;
    }
    bottomWall
    {
        type            calculated;
        value           nonuniform List<scalar> 
20
(
1.15135e-05
1.75382e-06
3.47395e-06
3.85266e-06
3.7884e-06
3.53053e-06
3.20427e-06
2.86466e-06
2.54015e-06
2.24413e-06
1.98203e-06
1.75551e-06
1.5646e-06
1.40906e-06
1.28962e-06
1.20847e-06
1.16058e-06
1.12284e-06
1.18409e-06
2.32807e-06
)
;
    }
    frontAndBackPlanes
    {
        type            empty;
    }
}


// ************************************************************************* //
