/*--------------------------------*- C++ -*----------------------------------*\
| =========                 |                                                 |
| \\      /  F ield         | OpenFOAM: The Open Source CFD Toolbox           |
|  \\    /   O peration     | Version:  2506                                  |
|   \\  /    A nd           | Website:  www.openfoam.com                      |
|    \\/     M anipulation  |                                                 |
\*---------------------------------------------------------------------------*/
FoamFile
{
    version     2.0;
    format      ascii;
    arch        "LSB;label=32;scalar=64";
    class       volScalarField;
    location    "1.557521";
    object      T;
}
// * * * * * * * * * * * * * * * * * * * * * * * * * * * * * * * * * * * * * //

dimensions      [0 0 0 1 0 0 0];

internalField   nonuniform List<scalar> 
400
(
287.437
278.285
276.137
275.156
274.548
274.13
273.83
273.611
273.449
273.329
273.24
273.174
273.125
273.089
273.062
273.043
273.029
273.018
273.01
273.002
284.486
278.776
276.815
275.71
274.988
274.48
274.109
273.832
273.624
273.466
273.347
273.257
273.189
273.138
273.099
273.071
273.049
273.034
273.021
273.009
283.553
278.744
276.98
275.921
275.192
274.661
274.263
273.961
273.73
273.552
273.416
273.312
273.232
273.172
273.126
273.091
273.066
273.046
273.031
273.016
283.204
278.693
277.041
276.031
275.315
274.781
274.372
274.057
273.811
273.62
273.472
273.357
273.269
273.201
273.149
273.11
273.08
273.058
273.04
273.022
283.031
278.658
277.071
276.096
275.397
274.866
274.454
274.13
273.876
273.675
273.518
273.395
273.3
273.226
273.17
273.126
273.093
273.068
273.048
273.028
282.929
278.637
277.089
276.139
275.453
274.927
274.514
274.187
273.927
273.72
273.556
273.427
273.326
273.248
273.187
273.141
273.105
273.077
273.055
273.033
282.864
278.625
277.101
276.168
275.492
274.971
274.559
274.229
273.965
273.754
273.586
273.453
273.348
273.265
273.202
273.152
273.115
273.085
273.062
273.037
282.821
278.618
277.11
276.187
275.518
275.001
274.59
274.26
273.994
273.78
273.608
273.472
273.364
273.279
273.213
273.162
273.122
273.091
273.066
273.04
282.794
278.613
277.115
276.199
275.535
275.02
274.61
274.279
274.012
273.796
273.623
273.484
273.374
273.288
273.22
273.168
273.127
273.095
273.069
273.043
282.782
278.612
277.118
276.205
275.543
275.029
274.619
274.289
274.021
273.804
273.63
273.491
273.38
273.292
273.224
273.171
273.13
273.097
273.071
273.044
282.782
278.612
277.118
276.205
275.543
275.029
274.619
274.289
274.021
273.804
273.63
273.491
273.38
273.292
273.224
273.171
273.13
273.097
273.071
273.044
282.794
278.613
277.115
276.199
275.535
275.02
274.61
274.279
274.012
273.796
273.623
273.484
273.374
273.288
273.22
273.168
273.127
273.095
273.069
273.043
282.821
278.618
277.11
276.187
275.518
275.001
274.59
274.26
273.994
273.78
273.608
273.472
273.364
273.279
273.213
273.161
273.122
273.091
273.066
273.04
282.864
278.625
277.101
276.168
275.492
274.971
274.559
274.229
273.965
273.754
273.586
273.453
273.348
273.265
273.202
273.152
273.115
273.085
273.062
273.037
282.929
278.637
277.089
276.139
275.453
274.927
274.514
274.187
273.926
273.72
273.556
273.427
273.326
273.248
273.187
273.141
273.105
273.077
273.055
273.033
283.031
278.658
277.071
276.096
275.397
274.866
274.454
274.13
273.876
273.675
273.518
273.395
273.3
273.226
273.17
273.126
273.093
273.068
273.048
273.028
283.204
278.693
277.041
276.031
275.315
274.781
274.372
274.057
273.811
273.62
273.472
273.357
273.269
273.201
273.149
273.11
273.08
273.058
273.04
273.022
283.553
278.744
276.98
275.921
275.192
274.661
274.263
273.961
273.73
273.552
273.416
273.312
273.232
273.172
273.126
273.091
273.066
273.046
273.031
273.016
284.486
278.776
276.815
275.71
274.988
274.48
274.109
273.832
273.624
273.466
273.347
273.257
273.189
273.138
273.099
273.071
273.049
273.034
273.021
273.009
287.437
278.285
276.137
275.156
274.548
274.13
273.83
273.611
273.449
273.329
273.24
273.174
273.125
273.089
273.062
273.043
273.029
273.018
273.01
273.002
)
;

boundaryField
{
    leftWall
    {
        type            fixedValue;
        value           uniform 373;
    }
    rightWall
    {
        type            fixedValue;
        value           uniform 273;
    }
    topWall
    {
        type            fixedValue;
        value           uniform 273;
    }
    bottomWall
    {
        type            fixedValue;
        value           uniform 273;
    }
    frontAndBackPlanes
    {
        type            empty;
    }
}


// ************************************************************************* //
