/*--------------------------------*- C++ -*----------------------------------*\
| =========                 |                                                 |
| \\      /  F ield         | OpenFOAM: The Open Source CFD Toolbox           |
|  \\    /   O peration     | Version:  2506                                  |
|   \\  /    A nd           | Website:  www.openfoam.com                      |
|    \\/     M anipulation  |                                                 |
\*---------------------------------------------------------------------------*/
FoamFile
{
    version     2.0;
    format      ascii;
    arch        "LSB;label=32;scalar=64";
    class       volVectorField;
    location    "1.557521";
    object      U;
}
// * * * * * * * * * * * * * * * * * * * * * * * * * * * * * * * * * * * * * //

dimensions      [0 1 -1 0 0 0 0];

internalField   nonuniform List<vector> 
400
(
(-0.000242573 -0.000271579 0)
(-1.06744e-05 -9.17947e-05 0)
(-1.09672e-05 -7.01621e-05 0)
(4.7955e-06 -6.4554e-05 0)
(1.43615e-05 -5.7926e-05 0)
(1.98841e-05 -5.11873e-05 0)
(2.29785e-05 -4.4947e-05 0)
(2.46135e-05 -3.93247e-05 0)
(2.52864e-05 -3.43571e-05 0)
(2.53007e-05 -3.00385e-05 0)
(2.48575e-05 -2.6334e-05 0)
(2.40929e-05 -2.31996e-05 0)
(2.30999e-05 -2.05954e-05 0)
(2.1941e-05 -1.84964e-05 0)
(2.0664e-05 -1.69044e-05 0)
(1.93239e-05 -1.58367e-05 0)
(1.79096e-05 -1.52886e-05 0)
(1.61772e-05 -1.5874e-05 0)
(1.48292e-05 -2.21658e-05 0)
(4.01656e-05 -4.04692e-05 0)
(-4.57582e-05 -4.50099e-05 0)
(-1.41132e-05 -5.16695e-05 0)
(-8.428e-06 -4.31942e-05 0)
(-3.30677e-07 -3.74414e-05 0)
(6.19319e-06 -3.18773e-05 0)
(1.10783e-05 -2.70485e-05 0)
(1.46884e-05 -2.30052e-05 0)
(1.72965e-05 -1.96253e-05 0)
(1.90953e-05 -1.67905e-05 0)
(2.02426e-05 -1.4414e-05 0)
(2.087e-05 -1.24296e-05 0)
(2.10864e-05 -1.07857e-05 0)
(2.09838e-05 -9.44463e-06 0)
(2.06406e-05 -8.38481e-06 0)
(2.01311e-05 -7.60431e-06 0)
(1.95384e-05 -7.12259e-06 0)
(1.8903e-05 -7.04228e-06 0)
(1.8103e-05 -7.8924e-06 0)
(1.78696e-05 -1.09144e-05 0)
(2.88301e-05 -1.31732e-05 0)
(-1.75198e-05 -5.72306e-05 0)
(-7.48421e-06 -4.86254e-05 0)
(-5.57257e-06 -4.00343e-05 0)
(-1.88472e-06 -3.377e-05 0)
(2.00337e-06 -2.84814e-05 0)
(5.73703e-06 -2.39313e-05 0)
(9.0714e-06 -2.00916e-05 0)
(1.18928e-05 -1.68916e-05 0)
(1.41686e-05 -1.4239e-05 0)
(1.59195e-05 -1.20499e-05 0)
(1.71945e-05 -1.02539e-05 0)
(1.8056e-05 -8.79504e-06 0)
(1.85711e-05 -7.63258e-06 0)
(1.88068e-05 -6.7434e-06 0)
(1.88307e-05 -6.12545e-06 0)
(1.87031e-05 -5.80424e-06 0)
(1.83986e-05 -5.88703e-06 0)
(1.77604e-05 -6.73657e-06 0)
(1.73868e-05 -8.84783e-06 0)
(2.60417e-05 -1.05169e-05 0)
(-1.89887e-05 -5.10007e-05 0)
(-8.23688e-06 -4.28732e-05 0)
(-6.42715e-06 -3.57085e-05 0)
(-4.03168e-06 -3.0268e-05 0)
(-1.12305e-06 -2.56202e-05 0)
(2.04794e-06 -2.15368e-05 0)
(5.1626e-06 -1.80135e-05 0)
(8.02815e-06 -1.50349e-05 0)
(1.05347e-05 -1.25517e-05 0)
(1.26334e-05 -1.05048e-05 0)
(1.43193e-05 -8.83704e-06 0)
(1.56162e-05 -7.49884e-06 0)
(1.65649e-05 -6.45226e-06 0)
(1.72141e-05 -5.67434e-06 0)
(1.76164e-05 -5.16026e-06 0)
(1.78098e-05 -4.92927e-06 0)
(1.77344e-05 -5.05767e-06 0)
(1.72558e-05 -5.74689e-06 0)
(1.71221e-05 -7.18248e-06 0)
(2.63396e-05 -8.27844e-06 0)
(-2.12271e-05 -4.21824e-05 0)
(-9.87654e-06 -3.60854e-05 0)
(-8.18904e-06 -3.0512e-05 0)
(-6.23726e-06 -2.60263e-05 0)
(-3.68447e-06 -2.21193e-05 0)
(-7.60067e-07 -1.86397e-05 0)
(2.23258e-06 -1.55884e-05 0)
(5.10824e-06 -1.29709e-05 0)
(7.74166e-06 -1.07672e-05 0)
(1.0055e-05 -8.94232e-06 0)
(1.20129e-05 -7.45671e-06 0)
(1.36121e-05 -6.2724e-06 0)
(1.48708e-05 -5.35814e-06 0)
(1.58201e-05 -4.69317e-06 0)
(1.64973e-05 -4.26987e-06 0)
(1.6925e-05 -4.09713e-06 0)
(1.70337e-05 -4.21512e-06 0)
(1.67228e-05 -4.71399e-06 0)
(1.68372e-05 -5.63467e-06 0)
(2.64983e-05 -6.2964e-06 0)
(-2.2956e-05 -3.38613e-05 0)
(-1.11634e-05 -2.94009e-05 0)
(-9.69228e-06 -2.50843e-05 0)
(-8.02095e-06 -2.147e-05 0)
(-5.68014e-06 -1.82901e-05 0)
(-2.90467e-06 -1.54437e-05 0)
(6.95459e-09 -1.29253e-05 0)
(2.87883e-06 -1.07425e-05 0)
(5.58399e-06 -8.88871e-06 0)
(8.03234e-06 -7.34528e-06 0)
(1.01711e-05 -6.08689e-06 0)
(1.19789e-05 -5.08676e-06 0)
(1.34569e-05 -4.32111e-06 0)
(1.46213e-05 -3.77238e-06 0)
(1.54968e-05 -3.43122e-06 0)
(1.60958e-05 -3.2977e-06 0)
(1.63488e-05 -3.38655e-06 0)
(1.61826e-05 -3.72979e-06 0)
(1.64926e-05 -4.31785e-06 0)
(2.6393e-05 -4.72217e-06 0)
(-2.44756e-05 -2.60109e-05 0)
(-1.21409e-05 -2.28127e-05 0)
(-1.08148e-05 -1.9585e-05 0)
(-9.33781e-06 -1.68114e-05 0)
(-7.15377e-06 -1.43483e-05 0)
(-4.48959e-06 -1.21344e-05 0)
(-1.64243e-06 -1.01647e-05 0)
(1.21601e-06 -8.44555e-06 0)
(3.95881e-06 -6.9762e-06 0)
(6.48989e-06 -5.74714e-06 0)
(8.7463e-06 -4.74298e-06 0)
(1.06945e-05 -3.9458e-06 0)
(1.23236e-05 -3.33844e-06 0)
(1.36382e-05 -2.9069e-06 0)
(1.46539e-05 -2.64158e-06 0)
(1.53774e-05 -2.5374e-06 0)
(1.57425e-05 -2.59512e-06 0)
(1.56969e-05 -2.82047e-06 0)
(1.6161e-05 -3.19273e-06 0)
(2.62046e-05 -3.44985e-06 0)
(-2.56628e-05 -1.83983e-05 0)
(-1.28535e-05 -1.62582e-05 0)
(-1.16052e-05 -1.40265e-05 0)
(-1.02542e-05 -1.20727e-05 0)
(-8.18131e-06 -1.03214e-05 0)
(-5.59949e-06 -8.74015e-06 0)
(-2.80331e-06 -7.32735e-06 0)
(3.80416e-08 -6.08853e-06 0)
(2.79801e-06 -5.02499e-06 0)
(5.37735e-06 -4.13228e-06 0)
(7.70704e-06 -3.40154e-06 0)
(9.74576e-06 -2.82152e-06 0)
(1.14742e-05 -2.38067e-06 0)
(1.28895e-05 -2.06878e-06 0)
(1.40007e-05 -1.87761e-06 0)
(1.4812e-05 -1.80064e-06 0)
(1.5261e-05 -1.83313e-06 0)
(1.53101e-05 -1.97144e-06 0)
(1.58895e-05 -2.19765e-06 0)
(2.60148e-05 -2.35936e-06 0)
(-2.64525e-05 -1.09606e-05 0)
(-1.33131e-05 -9.7365e-06 0)
(-1.21049e-05 -8.42885e-06 0)
(-1.08297e-05 -7.26959e-06 0)
(-8.82798e-06 -6.22305e-06 0)
(-6.30109e-06 -5.27459e-06 0)
(-3.54075e-06 -4.42468e-06 0)
(-7.14378e-07 -3.67724e-06 0)
(2.05186e-06 -3.03374e-06 0)
(4.65704e-06 -2.49236e-06 0)
(7.0287e-06 -2.04859e-06 0)
(9.12088e-06 -1.69628e-06 0)
(1.09092e-05 -1.42879e-06 0)
(1.2386e-05 -1.23988e-06 0)
(1.35569e-05 -1.12401e-06 0)
(1.44245e-05 -1.07614e-06 0)
(1.49299e-05 -1.09148e-06 0)
(1.50439e-05 -1.16541e-06 0)
(1.56994e-05 -1.28681e-06 0)
(2.58663e-05 -1.37703e-06 0)
(-2.68442e-05 -3.63997e-06 0)
(-1.3537e-05 -3.24211e-06 0)
(-1.23458e-05 -2.81158e-06 0)
(-1.11063e-05 -2.42749e-06 0)
(-9.13945e-06 -2.07944e-06 0)
(-6.64018e-06 -1.76336e-06 0)
(-3.89843e-06 -1.47971e-06 0)
(-1.08068e-06 -1.22989e-06 0)
(1.68714e-06 -1.01452e-06 0)
(4.30338e-06 -8.33117e-07 0)
(6.69401e-06 -6.84317e-07 0)
(8.8109e-06 -5.66162e-07 0)
(1.06273e-05 -4.76485e-07 0)
(1.21332e-05 -4.13186e-07 0)
(1.33328e-05 -3.74325e-07 0)
(1.4228e-05 -3.58021e-07 0)
(1.47617e-05 -3.62389e-07 0)
(1.49087e-05 -3.85537e-07 0)
(1.56019e-05 -4.2377e-07 0)
(2.57856e-05 -4.52884e-07 0)
(-2.68442e-05 3.64001e-06 0)
(-1.3537e-05 3.24216e-06 0)
(-1.23458e-05 2.81163e-06 0)
(-1.11063e-05 2.42753e-06 0)
(-9.13945e-06 2.07948e-06 0)
(-6.64018e-06 1.76341e-06 0)
(-3.89843e-06 1.47976e-06 0)
(-1.08068e-06 1.22995e-06 0)
(1.68714e-06 1.01458e-06 0)
(4.30338e-06 8.33177e-07 0)
(6.69401e-06 6.84377e-07 0)
(8.8109e-06 5.6622e-07 0)
(1.06273e-05 4.7654e-07 0)
(1.21332e-05 4.13237e-07 0)
(1.33328e-05 3.74372e-07 0)
(1.4228e-05 3.58064e-07 0)
(1.47617e-05 3.62428e-07 0)
(1.49087e-05 3.85573e-07 0)
(1.56019e-05 4.23803e-07 0)
(2.57856e-05 4.52913e-07 0)
(-2.64525e-05 1.09606e-05 0)
(-1.33131e-05 9.73655e-06 0)
(-1.21049e-05 8.4289e-06 0)
(-1.08297e-05 7.26963e-06 0)
(-8.82797e-06 6.22309e-06 0)
(-6.30109e-06 5.27464e-06 0)
(-3.54074e-06 4.42473e-06 0)
(-7.14373e-07 3.6773e-06 0)
(2.05186e-06 3.03379e-06 0)
(4.65704e-06 2.49242e-06 0)
(7.0287e-06 2.04865e-06 0)
(9.12088e-06 1.69634e-06 0)
(1.09092e-05 1.42884e-06 0)
(1.2386e-05 1.23992e-06 0)
(1.35569e-05 1.12406e-06 0)
(1.44245e-05 1.07618e-06 0)
(1.49298e-05 1.09152e-06 0)
(1.50439e-05 1.16545e-06 0)
(1.56994e-05 1.28684e-06 0)
(2.58663e-05 1.37706e-06 0)
(-2.56628e-05 1.83983e-05 0)
(-1.28535e-05 1.62582e-05 0)
(-1.16052e-05 1.40265e-05 0)
(-1.02542e-05 1.20727e-05 0)
(-8.1813e-06 1.03214e-05 0)
(-5.59948e-06 8.7402e-06 0)
(-2.8033e-06 7.32739e-06 0)
(3.80489e-08 6.08858e-06 0)
(2.79802e-06 5.02504e-06 0)
(5.37735e-06 4.13234e-06 0)
(7.70704e-06 3.4016e-06 0)
(9.74576e-06 2.82157e-06 0)
(1.14742e-05 2.38072e-06 0)
(1.28895e-05 2.06883e-06 0)
(1.40007e-05 1.87765e-06 0)
(1.4812e-05 1.80067e-06 0)
(1.5261e-05 1.83317e-06 0)
(1.53101e-05 1.97147e-06 0)
(1.58895e-05 2.19768e-06 0)
(2.60148e-05 2.35938e-06 0)
(-2.44756e-05 2.6011e-05 0)
(-1.21409e-05 2.28128e-05 0)
(-1.08148e-05 1.95851e-05 0)
(-9.33779e-06 1.68114e-05 0)
(-7.15375e-06 1.43483e-05 0)
(-4.48958e-06 1.21345e-05 0)
(-1.64242e-06 1.01647e-05 0)
(1.21602e-06 8.4456e-06 0)
(3.95882e-06 6.97624e-06 0)
(6.48989e-06 5.74719e-06 0)
(8.7463e-06 4.74303e-06 0)
(1.06945e-05 3.94585e-06 0)
(1.23236e-05 3.33848e-06 0)
(1.36382e-05 2.90694e-06 0)
(1.46539e-05 2.64162e-06 0)
(1.53774e-05 2.53744e-06 0)
(1.57425e-05 2.59515e-06 0)
(1.56969e-05 2.8205e-06 0)
(1.6161e-05 3.19276e-06 0)
(2.62046e-05 3.44987e-06 0)
(-2.2956e-05 3.38613e-05 0)
(-1.11634e-05 2.94009e-05 0)
(-9.69226e-06 2.50843e-05 0)
(-8.02093e-06 2.14701e-05 0)
(-5.68012e-06 1.82901e-05 0)
(-2.90465e-06 1.54437e-05 0)
(6.97018e-09 1.29253e-05 0)
(2.87884e-06 1.07425e-05 0)
(5.584e-06 8.88875e-06 0)
(8.03234e-06 7.34532e-06 0)
(1.01711e-05 6.08693e-06 0)
(1.19789e-05 5.0868e-06 0)
(1.34569e-05 4.32114e-06 0)
(1.46213e-05 3.77242e-06 0)
(1.54967e-05 3.43125e-06 0)
(1.60958e-05 3.29773e-06 0)
(1.63488e-05 3.38657e-06 0)
(1.61826e-05 3.72981e-06 0)
(1.64926e-05 4.31787e-06 0)
(2.6393e-05 4.72219e-06 0)
(-2.1227e-05 4.21824e-05 0)
(-9.87652e-06 3.60855e-05 0)
(-8.18902e-06 3.05121e-05 0)
(-6.23723e-06 2.60263e-05 0)
(-3.68444e-06 2.21193e-05 0)
(-7.60046e-07 1.86397e-05 0)
(2.2326e-06 1.55884e-05 0)
(5.10825e-06 1.29709e-05 0)
(7.74167e-06 1.07672e-05 0)
(1.00551e-05 8.94235e-06 0)
(1.20129e-05 7.45674e-06 0)
(1.3612e-05 6.27243e-06 0)
(1.48708e-05 5.35817e-06 0)
(1.58201e-05 4.6932e-06 0)
(1.64973e-05 4.26989e-06 0)
(1.6925e-05 4.09715e-06 0)
(1.70337e-05 4.21514e-06 0)
(1.67228e-05 4.71401e-06 0)
(1.68372e-05 5.63469e-06 0)
(2.64983e-05 6.29641e-06 0)
(-1.89887e-05 5.10007e-05 0)
(-8.23685e-06 4.28732e-05 0)
(-6.42713e-06 3.57085e-05 0)
(-4.03165e-06 3.0268e-05 0)
(-1.12303e-06 2.56202e-05 0)
(2.04796e-06 2.15369e-05 0)
(5.16262e-06 1.80136e-05 0)
(8.02817e-06 1.50349e-05 0)
(1.05347e-05 1.25518e-05 0)
(1.26334e-05 1.05049e-05 0)
(1.43193e-05 8.83706e-06 0)
(1.56162e-05 7.49886e-06 0)
(1.65649e-05 6.45228e-06 0)
(1.72141e-05 5.67436e-06 0)
(1.76164e-05 5.16028e-06 0)
(1.78098e-05 4.92929e-06 0)
(1.77344e-05 5.05768e-06 0)
(1.72558e-05 5.7469e-06 0)
(1.71221e-05 7.18249e-06 0)
(2.63395e-05 8.27845e-06 0)
(-1.75197e-05 5.72306e-05 0)
(-7.48419e-06 4.86254e-05 0)
(-5.57254e-06 4.00343e-05 0)
(-1.8847e-06 3.377e-05 0)
(2.0034e-06 2.84814e-05 0)
(5.73706e-06 2.39313e-05 0)
(9.07143e-06 2.00916e-05 0)
(1.18929e-05 1.68916e-05 0)
(1.41686e-05 1.4239e-05 0)
(1.59195e-05 1.20499e-05 0)
(1.71945e-05 1.02539e-05 0)
(1.8056e-05 8.79505e-06 0)
(1.85711e-05 7.63259e-06 0)
(1.88068e-05 6.74341e-06 0)
(1.88306e-05 6.12546e-06 0)
(1.87031e-05 5.80424e-06 0)
(1.83986e-05 5.88703e-06 0)
(1.77604e-05 6.73657e-06 0)
(1.73868e-05 8.84783e-06 0)
(2.60417e-05 1.05169e-05 0)
(-4.57581e-05 4.50099e-05 0)
(-1.41131e-05 5.16695e-05 0)
(-8.42798e-06 4.31942e-05 0)
(-3.3065e-07 3.74414e-05 0)
(6.19322e-06 3.18773e-05 0)
(1.10783e-05 2.70486e-05 0)
(1.46884e-05 2.30052e-05 0)
(1.72965e-05 1.96253e-05 0)
(1.90953e-05 1.67905e-05 0)
(2.02426e-05 1.4414e-05 0)
(2.087e-05 1.24296e-05 0)
(2.10864e-05 1.07857e-05 0)
(2.09838e-05 9.44464e-06 0)
(2.06406e-05 8.38481e-06 0)
(2.01311e-05 7.60431e-06 0)
(1.95384e-05 7.12259e-06 0)
(1.8903e-05 7.04228e-06 0)
(1.8103e-05 7.8924e-06 0)
(1.78696e-05 1.09144e-05 0)
(2.88301e-05 1.31732e-05 0)
(-0.000242573 0.000271579 0)
(-1.06743e-05 9.17946e-05 0)
(-1.09672e-05 7.01621e-05 0)
(4.79553e-06 6.4554e-05 0)
(1.43615e-05 5.7926e-05 0)
(1.98841e-05 5.11873e-05 0)
(2.29785e-05 4.4947e-05 0)
(2.46136e-05 3.93247e-05 0)
(2.52864e-05 3.43571e-05 0)
(2.53007e-05 3.00385e-05 0)
(2.48575e-05 2.6334e-05 0)
(2.40929e-05 2.31995e-05 0)
(2.30999e-05 2.05954e-05 0)
(2.1941e-05 1.84963e-05 0)
(2.06639e-05 1.69044e-05 0)
(1.93239e-05 1.58367e-05 0)
(1.79096e-05 1.52886e-05 0)
(1.61771e-05 1.5874e-05 0)
(1.48292e-05 2.21658e-05 0)
(4.01655e-05 4.04691e-05 0)
)
;

boundaryField
{
    leftWall
    {
        type            noSlip;
    }
    rightWall
    {
        type            noSlip;
    }
    topWall
    {
        type            noSlip;
    }
    bottomWall
    {
        type            noSlip;
    }
    frontAndBackPlanes
    {
        type            empty;
    }
}


// ************************************************************************* //
