/*--------------------------------*- C++ -*----------------------------------*\
| =========                 |                                                 |
| \\      /  F ield         | OpenFOAM: The Open Source CFD Toolbox           |
|  \\    /   O peration     | Version:  2506                                  |
|   \\  /    A nd           | Website:  www.openfoam.com                      |
|    \\/     M anipulation  |                                                 |
\*---------------------------------------------------------------------------*/
FoamFile
{
    version     2.0;
    format      ascii;
    arch        "LSB;label=32;scalar=64";
    class       volScalarField;
    location    "0.595795";
    object      alphat;
}
// * * * * * * * * * * * * * * * * * * * * * * * * * * * * * * * * * * * * * //

dimensions      [1 -1 -1 0 0 0 0];

internalField   nonuniform List<scalar> 
200
(
0.457051
0.455741
0.452738
0.447239
0.437971
0.423159
0.400379
0.365434
0.306287
0.173875
4.78287
4.76763
4.73314
4.67076
4.56574
4.39374
4.11094
3.61976
2.62574
0.306288
7.92624
7.89506
7.82453
7.69685
7.48084
7.12365
6.53068
5.51065
3.61977
0.365437
9.90978
9.86427
9.76166
9.57684
9.26604
8.75632
7.9223
6.53069
4.11096
0.400382
11.1876
11.13
11.0008
10.7696
10.3844
9.7603
8.75633
7.12368
4.39377
0.423162
12.0138
11.9466
11.7966
11.53
11.0898
10.3844
9.26607
7.48087
4.56577
0.437973
12.5408
12.4665
12.3011
12.0089
11.53
10.7697
9.57689
7.6969
4.67078
0.44724
12.8659
12.7866
12.6107
12.3012
11.7967
11.0009
9.76173
7.82459
4.73316
0.452738
13.0516
12.9692
12.7867
12.4667
11.9468
11.1301
9.86439
7.89514
4.76766
0.45574
13.1355
13.0517
12.8661
12.5411
12.014
11.1878
9.90996
7.92635
4.78291
0.45705
13.1355
13.0517
12.8661
12.5411
12.014
11.1878
9.90996
7.92635
4.78291
0.45705
13.0516
12.9692
12.7867
12.4667
11.9468
11.1301
9.86439
7.89514
4.76766
0.45574
12.8659
12.7866
12.6107
12.3012
11.7967
11.0009
9.76173
7.82459
4.73316
0.452738
12.5408
12.4665
12.3011
12.0089
11.53
10.7697
9.57689
7.6969
4.67078
0.44724
12.0138
11.9466
11.7966
11.53
11.0898
10.3844
9.26607
7.48087
4.56577
0.437973
11.1876
11.13
11.0008
10.7696
10.3844
9.7603
8.75633
7.12368
4.39377
0.423162
9.90978
9.86427
9.76166
9.57684
9.26604
8.75632
7.9223
6.53069
4.11096
0.400382
7.92624
7.89506
7.82453
7.69685
7.48084
7.12365
6.53068
5.51065
3.61977
0.365437
4.78287
4.76763
4.73314
4.67076
4.56574
4.39374
4.11094
3.61976
2.62574
0.306288
0.457051
0.455741
0.452738
0.447239
0.437971
0.423159
0.400379
0.365434
0.306287
0.173875
)
;

boundaryField
{
    leftWall
    {
        type            compressible::alphatWallFunction;
        value           nonuniform List<scalar> 0();
    }
    rightWall
    {
        type            compressible::alphatWallFunction;
        value           nonuniform List<scalar> 
20
(
0.0459183
0.0660222
0.074068
0.0780001
0.0801283
0.0813105
0.081964
0.0823173
0.0824979
0.0825736
0.0825736
0.0824979
0.0823173
0.081964
0.0813105
0.0801283
0.0780001
0.074068
0.0660222
0.0459183
)
;
    }
    topWall
    {
        type            compressible::alphatWallFunction;
        value           nonuniform List<scalar> 10(0.0825748 0.0824987 0.0823178 0.0819642 0.0813105 0.0801282 0.0779999 0.0740678 0.066022 0.0459183);
    }
    bottomWall
    {
        type            compressible::alphatWallFunction;
        value           nonuniform List<scalar> 10(0.0825748 0.0824987 0.0823178 0.0819642 0.0813105 0.0801282 0.0779999 0.0740678 0.066022 0.0459183);
    }
    frontAndBackPlanes
    {
        type            empty;
    }
    procBoundary0to1
    {
        type            processor;
        value           nonuniform List<scalar> 
20
(
0.45705
4.78284
7.92618
9.90968
11.1874
12.0136
12.5406
12.8657
13.0514
13.1353
13.1353
13.0514
12.8657
12.5406
12.0136
11.1874
9.90968
7.92618
4.78284
0.45705
)
;
    }
}


// ************************************************************************* //
