/*--------------------------------*- C++ -*----------------------------------*\
| =========                 |                                                 |
| \\      /  F ield         | OpenFOAM: The Open Source CFD Toolbox           |
|  \\    /   O peration     | Version:  2506                                  |
|   \\  /    A nd           | Website:  www.openfoam.com                      |
|    \\/     M anipulation  |                                                 |
\*---------------------------------------------------------------------------*/
FoamFile
{
    version     2.0;
    format      ascii;
    arch        "LSB;label=32;scalar=64";
    class       surfaceScalarField;
    location    "0.595795";
    object      phi;
}
// * * * * * * * * * * * * * * * * * * * * * * * * * * * * * * * * * * * * * //

dimensions      [1 0 -1 0 0 0 0];

oriented        oriented;

internalField   nonuniform List<scalar> 
370
(
2.79449e-06
-2.59431e-06
2.52698e-06
-2.28563e-06
2.27943e-06
-2.00548e-06
2.0517e-06
-1.75264e-06
1.84188e-06
-1.52798e-06
1.6469e-06
-1.33337e-06
1.46569e-06
-1.17139e-06
1.3274e-06
-1.07088e-06
1.34573e-06
-1.1606e-06
-1.26463e-06
2.80427e-06
-2.28039e-06
2.57949e-06
-2.00221e-06
2.35999e-06
-1.75139e-06
2.15387e-06
-1.52634e-06
1.96582e-06
-1.32829e-06
1.79994e-06
-1.16087e-06
1.66561e-06
-1.03335e-06
1.57425e-06
-9.77508e-07
1.45935e-06
-1.04468e-06
-1.00716e-06
2.65343e-06
-1.99423e-06
2.47547e-06
-1.74262e-06
2.29146e-06
-1.51844e-06
2.11375e-06
-1.31966e-06
1.94982e-06
-1.1474e-06
1.80447e-06
-1.00572e-06
1.68039e-06
-9.03674e-07
1.56722e-06
-8.61215e-07
1.41913e-06
-8.94931e-07
-8.63582e-07
2.57193e-06
-1.72178e-06
2.42822e-06
-1.49684e-06
2.2707e-06
-1.29897e-06
2.11405e-06
-1.1259e-06
1.96701e-06
-9.78388e-07
1.83407e-06
-8.59908e-07
1.7152e-06
-7.77368e-07
1.60118e-06
-7.42955e-07
1.47371e-06
-7.65142e-07
-7.52277e-07
2.54473e-06
-1.45196e-06
2.42407e-06
-1.25632e-06
2.28473e-06
-1.08613e-06
2.14244e-06
-9.39162e-07
2.00644e-06
-8.15835e-07
1.88099e-06
-7.18759e-07
1.76566e-06
-6.52861e-07
1.65404e-06
-6.26046e-07
1.53587e-06
-6.44043e-07
-6.41603e-07
2.55496e-06
-1.17742e-06
2.44807e-06
-1.01484e-06
2.31973e-06
-8.74572e-07
2.18602e-06
-7.54739e-07
2.05618e-06
-6.55486e-07
1.93422e-06
-5.78636e-07
1.81962e-06
-5.27565e-07
1.70729e-06
-5.07493e-07
1.58923e-06
-5.22514e-07
-5.25544e-07
2.58733e-06
-8.94427e-07
2.4873e-06
-7.68718e-07
2.36449e-06
-6.60862e-07
2.23491e-06
-5.69452e-07
2.10763e-06
-4.94495e-07
1.98635e-06
-4.3718e-07
1.87045e-06
-3.99713e-07
1.75543e-06
-3.85495e-07
1.63429e-06
-3.97454e-07
-4.02494e-07
2.62698e-06
-6.02421e-07
2.52947e-06
-5.16763e-07
2.40865e-06
-4.4352e-07
2.28038e-06
-3.81776e-07
2.15347e-06
-3.31495e-07
2.03136e-06
-2.93381e-07
1.9133e-06
-2.68759e-07
1.79505e-06
-2.59689e-07
1.66995e-06
-2.68095e-07
-2.72672e-07
2.6611e-06
-3.03189e-07
2.56394e-06
-2.59799e-07
2.44336e-06
-2.22764e-07
2.31505e-06
-1.91637e-07
2.18761e-06
-1.66391e-07
2.06427e-06
-1.47351e-07
1.94417e-06
-1.35138e-07
1.82315e-06
-1.3073e-07
1.69462e-06
-1.35079e-07
-1.37702e-07
2.68052e-06
2.29124e-12
2.58314e-06
2.09708e-12
2.46234e-06
1.85058e-12
2.33372e-06
1.60693e-12
2.20577e-06
1.38241e-12
2.0816e-06
1.1727e-12
1.96029e-06
9.7066e-13
1.83769e-06
7.718e-13
1.70721e-06
5.81284e-13
3.49438e-13
2.68052e-06
3.03193e-07
2.58314e-06
2.59803e-07
2.46234e-06
2.22768e-07
2.33372e-06
1.9164e-07
2.20577e-06
1.66393e-07
2.0816e-06
1.47354e-07
1.96029e-06
1.3514e-07
1.83769e-06
1.30731e-07
1.70721e-06
1.3508e-07
1.37703e-07
2.6611e-06
6.02424e-07
2.56394e-06
5.16767e-07
2.44336e-06
4.43524e-07
2.31505e-06
3.81779e-07
2.18761e-06
3.31497e-07
2.06427e-06
2.93383e-07
1.94416e-06
2.6876e-07
1.82314e-06
2.59691e-07
1.69462e-06
2.68096e-07
2.72672e-07
2.62698e-06
8.9443e-07
2.52947e-06
7.6872e-07
2.40864e-06
6.60864e-07
2.28038e-06
5.69454e-07
2.15347e-06
4.94497e-07
2.03136e-06
4.37182e-07
1.9133e-06
3.99715e-07
1.79505e-06
3.85496e-07
1.66995e-06
3.97455e-07
4.02495e-07
2.58733e-06
1.17742e-06
2.4873e-06
1.01484e-06
2.36449e-06
8.74573e-07
2.23491e-06
7.54741e-07
2.10763e-06
6.55487e-07
1.98635e-06
5.78637e-07
1.87045e-06
5.27566e-07
1.75543e-06
5.07494e-07
1.63429e-06
5.22515e-07
5.25544e-07
2.55497e-06
1.45196e-06
2.44807e-06
1.25633e-06
2.31973e-06
1.08613e-06
2.18602e-06
9.39163e-07
2.05618e-06
8.15835e-07
1.93422e-06
7.1876e-07
1.81962e-06
6.52862e-07
1.70728e-06
6.26047e-07
1.58923e-06
6.44043e-07
6.41604e-07
2.54473e-06
1.72178e-06
2.42406e-06
1.49684e-06
2.28473e-06
1.29897e-06
2.14244e-06
1.1259e-06
2.00644e-06
9.78389e-07
1.88099e-06
8.59909e-07
1.76566e-06
7.77368e-07
1.65404e-06
7.42955e-07
1.53587e-06
7.65142e-07
7.52277e-07
2.57193e-06
1.99423e-06
2.42821e-06
1.74262e-06
2.2707e-06
1.51844e-06
2.11405e-06
1.31966e-06
1.96701e-06
1.1474e-06
1.83406e-06
1.00572e-06
1.7152e-06
9.03674e-07
1.60118e-06
8.61214e-07
1.47371e-06
8.94931e-07
8.63581e-07
2.65343e-06
2.28039e-06
2.47546e-06
2.00221e-06
2.29146e-06
1.75139e-06
2.11375e-06
1.52634e-06
1.94981e-06
1.32829e-06
1.80447e-06
1.16087e-06
1.68038e-06
1.03335e-06
1.56722e-06
9.77508e-07
1.41913e-06
1.04468e-06
1.00716e-06
2.80427e-06
2.59431e-06
2.57949e-06
2.28563e-06
2.35999e-06
2.00548e-06
2.15387e-06
1.75264e-06
1.96582e-06
1.52798e-06
1.79994e-06
1.33337e-06
1.6656e-06
1.17139e-06
1.57424e-06
1.07088e-06
1.45935e-06
1.1606e-06
1.26463e-06
2.79449e-06
2.52698e-06
2.27943e-06
2.0517e-06
1.84188e-06
1.6469e-06
1.46568e-06
1.3274e-06
1.34573e-06
)
;

boundaryField
{
    leftWall
    {
        type            calculated;
        value           nonuniform List<scalar> 0();
    }
    rightWall
    {
        type            calculated;
        value           nonuniform List<scalar> 
20
(
1.30521e-06
1.2022e-06
1.27619e-06
1.36335e-06
1.42643e-06
1.47466e-06
1.51293e-06
1.54197e-06
1.56159e-06
1.5715e-06
1.5715e-06
1.56159e-06
1.54197e-06
1.51293e-06
1.47466e-06
1.42643e-06
1.36335e-06
1.27619e-06
1.20219e-06
1.3052e-06
)
;
    }
    topWall
    {
        type            calculated;
        value           nonuniform List<scalar> 10(2.92908e-06 2.58244e-06 2.26986e-06 1.98993e-06 1.74317e-06 1.53131e-06 1.3542e-06 1.20996e-06 1.1426e-06 1.30521e-06);
    }
    bottomWall
    {
        type            calculated;
        value           nonuniform List<scalar> 10(2.92908e-06 2.58244e-06 2.26986e-06 1.98993e-06 1.74317e-06 1.53131e-06 1.3542e-06 1.20996e-06 1.1426e-06 1.3052e-06);
    }
    frontAndBackPlanes
    {
        type            empty;
    }
    procBoundary0to1
    {
        type            processor;
        value           nonuniform List<scalar> 
20
(
-3.07872e-06
-3.02009e-06
-2.80542e-06
-2.67896e-06
-2.62243e-06
-2.61563e-06
-2.63969e-06
-2.67636e-06
-2.71005e-06
-2.72971e-06
-2.72971e-06
-2.71005e-06
-2.67636e-06
-2.6397e-06
-2.61563e-06
-2.62243e-06
-2.67896e-06
-2.80542e-06
-3.02009e-06
-3.07872e-06
)
;
    }
}


// ************************************************************************* //
