/*--------------------------------*- C++ -*----------------------------------*\
| =========                 |                                                 |
| \\      /  F ield         | OpenFOAM: The Open Source CFD Toolbox           |
|  \\    /   O peration     | Version:  2506                                  |
|   \\  /    A nd           | Website:  www.openfoam.com                      |
|    \\/     M anipulation  |                                                 |
\*---------------------------------------------------------------------------*/
FoamFile
{
    version     2.0;
    format      ascii;
    arch        "LSB;label=32;scalar=64";
    class       volScalarField;
    location    "0.595795";
    object      T;
}
// * * * * * * * * * * * * * * * * * * * * * * * * * * * * * * * * * * * * * //

dimensions      [0 0 0 1 0 0 0];

internalField   nonuniform List<scalar> 
200
(
273.014
273.008
273.004
273.002
273.001
273.001
273
273
273
273
273.028
273.016
273.009
273.005
273.003
273.002
273.001
273
273
273
273.04
273.023
273.013
273.007
273.004
273.002
273.001
273.001
273
273
273.049
273.029
273.017
273.01
273.006
273.003
273.002
273.001
273.001
273
273.057
273.034
273.02
273.012
273.007
273.004
273.002
273.001
273.001
273
273.064
273.038
273.022
273.013
273.008
273.004
273.003
273.001
273.001
273
273.069
273.041
273.024
273.014
273.008
273.005
273.003
273.002
273.001
273
273.072
273.043
273.026
273.015
273.009
273.005
273.003
273.002
273.001
273
273.074
273.045
273.027
273.016
273.009
273.006
273.003
273.002
273.001
273
273.075
273.046
273.027
273.016
273.01
273.006
273.003
273.002
273.001
273
273.075
273.046
273.027
273.016
273.01
273.006
273.003
273.002
273.001
273
273.074
273.045
273.027
273.016
273.009
273.006
273.003
273.002
273.001
273
273.072
273.043
273.026
273.015
273.009
273.005
273.003
273.002
273.001
273
273.069
273.041
273.024
273.014
273.008
273.005
273.003
273.002
273.001
273
273.064
273.038
273.022
273.013
273.008
273.004
273.003
273.001
273.001
273
273.057
273.034
273.02
273.012
273.007
273.004
273.002
273.001
273.001
273
273.049
273.029
273.017
273.01
273.006
273.003
273.002
273.001
273.001
273
273.04
273.023
273.013
273.007
273.004
273.002
273.001
273.001
273
273
273.028
273.016
273.009
273.005
273.003
273.002
273.001
273
273
273
273.014
273.008
273.004
273.002
273.001
273.001
273
273
273
273
)
;

boundaryField
{
    leftWall
    {
        type            fixedValue;
        value           nonuniform List<scalar> 0();
    }
    rightWall
    {
        type            fixedValue;
        value           uniform 273;
    }
    topWall
    {
        type            fixedValue;
        value           uniform 273;
    }
    bottomWall
    {
        type            fixedValue;
        value           uniform 273;
    }
    frontAndBackPlanes
    {
        type            empty;
    }
    procBoundary0to1
    {
        type            processor;
        value           nonuniform List<scalar> 
20
(
273.025
273.05
273.068
273.084
273.096
273.106
273.113
273.118
273.121
273.123
273.123
273.121
273.118
273.113
273.106
273.096
273.084
273.068
273.05
273.025
)
;
    }
}


// ************************************************************************* //
