/*--------------------------------*- C++ -*----------------------------------*\
| =========                 |                                                 |
| \\      /  F ield         | OpenFOAM: The Open Source CFD Toolbox           |
|  \\    /   O peration     | Version:  2506                                  |
|   \\  /    A nd           | Website:  www.openfoam.com                      |
|    \\/     M anipulation  |                                                 |
\*---------------------------------------------------------------------------*/
FoamFile
{
    version     2.0;
    format      ascii;
    arch        "LSB;label=32;scalar=64";
    class       volVectorField;
    location    "0.595795";
    object      U;
}
// * * * * * * * * * * * * * * * * * * * * * * * * * * * * * * * * * * * * * //

dimensions      [0 1 -1 0 0 0 0];

internalField   nonuniform List<vector> 
200
(
(2.34444e-05 -4.07552e-05 0)
(2.12264e-05 -3.57429e-05 0)
(1.9164e-05 -3.122e-05 0)
(1.72659e-05 -2.71629e-05 0)
(1.55229e-05 -2.35768e-05 0)
(1.3922e-05 -2.04814e-05 0)
(1.24256e-05 -1.79001e-05 0)
(1.09664e-05 -1.61363e-05 0)
(1.04337e-05 -1.66996e-05 0)
(1.83932e-05 -1.82285e-05 0)
(2.33004e-05 -1.96069e-05 0)
(2.15046e-05 -1.72629e-05 0)
(1.97095e-05 -1.51382e-05 0)
(1.7998e-05 -1.32221e-05 0)
(1.64191e-05 -1.15245e-05 0)
(1.50085e-05 -1.00731e-05 0)
(1.37674e-05 -8.94081e-06 0)
(1.26544e-05 -8.39989e-06 0)
(1.22946e-05 -8.96584e-06 0)
(1.87862e-05 -8.90693e-06 0)
(2.18802e-05 -1.67014e-05 0)
(2.05138e-05 -1.46306e-05 0)
(1.90375e-05 -1.2775e-05 0)
(1.75745e-05 -1.11198e-05 0)
(1.62024e-05 -9.67486e-06 0)
(1.49682e-05 -8.47299e-06 0)
(1.38505e-05 -7.58969e-06 0)
(1.27617e-05 -7.2117e-06 0)
(1.22609e-05 -7.54838e-06 0)
(1.85556e-05 -7.31093e-06 0)
(2.10747e-05 -1.4777e-05 0)
(2.0018e-05 -1.2878e-05 0)
(1.87786e-05 -1.11978e-05 0)
(1.75017e-05 -9.71891e-06 0)
(1.62799e-05 -8.44902e-06 0)
(1.51625e-05 -7.41894e-06 0)
(1.41138e-05 -6.69188e-06 0)
(1.30497e-05 -6.38977e-06 0)
(1.25946e-05 -6.6075e-06 0)
(1.95e-05 -6.47782e-06 0)
(2.0755e-05 -1.27059e-05 0)
(1.99043e-05 -1.10167e-05 0)
(1.88266e-05 -9.54038e-06 0)
(1.76778e-05 -8.25837e-06 0)
(1.6557e-05 -7.17527e-06 0)
(1.55135e-05 -6.3154e-06 0)
(1.4505e-05 -5.72519e-06 0)
(1.34564e-05 -5.48182e-06 0)
(1.30553e-05 -5.64096e-06 0)
(2.04853e-05 -5.59561e-06 0)
(2.07766e-05 -1.05271e-05 0)
(2.00475e-05 -9.08781e-06 0)
(1.90676e-05 -7.84197e-06 0)
(1.79963e-05 -6.77306e-06 0)
(1.69345e-05 -5.883e-06 0)
(1.59296e-05 -5.18924e-06 0)
(1.49342e-05 -4.72411e-06 0)
(1.38786e-05 -4.53816e-06 0)
(1.34949e-05 -4.67001e-06 0)
(2.13311e-05 -4.68098e-06 0)
(2.10057e-05 -8.2954e-06 0)
(2.03367e-05 -7.13704e-06 0)
(1.94059e-05 -6.14127e-06 0)
(1.83733e-05 -5.29488e-06 0)
(1.73387e-05 -4.59829e-06 0)
(1.63469e-05 -4.0632e-06 0)
(1.53461e-05 -3.71128e-06 0)
(1.42686e-05 -3.57596e-06 0)
(1.38793e-05 -3.68538e-06 0)
(2.2043e-05 -3.72295e-06 0)
(2.13121e-05 -5.99635e-06 0)
(2.06647e-05 -5.14685e-06 0)
(1.9752e-05 -4.41975e-06 0)
(1.87328e-05 -3.80579e-06 0)
(1.77055e-05 -3.30473e-06 0)
(1.67122e-05 -2.92391e-06 0)
(1.56974e-05 -2.677e-06 0)
(1.45936e-05 -2.5853e-06 0)
(1.4189e-05 -2.66831e-06 0)
(2.26036e-05 -2.70942e-06 0)
(2.15834e-05 -3.62931e-06 0)
(2.09391e-05 -3.11061e-06 0)
(2.00289e-05 -2.66773e-06 0)
(1.90108e-05 -2.29528e-06 0)
(1.79816e-05 -1.99297e-06 0)
(1.69815e-05 -1.76477e-06 0)
(1.59522e-05 -1.61821e-06 0)
(1.48259e-05 -1.56518e-06 0)
(1.44057e-05 -1.61717e-06 0)
(2.29902e-05 -1.64706e-06 0)
(2.17396e-05 -1.21526e-06 0)
(2.10934e-05 -1.04086e-06 0)
(2.01815e-05 -8.92112e-07 0)
(1.91615e-05 -7.67262e-07 0)
(1.81293e-05 -6.66189e-07 0)
(1.7124e-05 -5.90149e-07 0)
(1.60858e-05 -5.41545e-07 0)
(1.49467e-05 -5.24202e-07 0)
(1.4517e-05 -5.41925e-07 0)
(2.31873e-05 -5.52699e-07 0)
(2.17396e-05 1.21529e-06 0)
(2.10934e-05 1.04089e-06 0)
(2.01815e-05 8.92141e-07 0)
(1.91615e-05 7.67288e-07 0)
(1.81293e-05 6.66211e-07 0)
(1.7124e-05 5.90168e-07 0)
(1.60858e-05 5.41561e-07 0)
(1.49467e-05 5.24215e-07 0)
(1.4517e-05 5.41934e-07 0)
(2.31873e-05 5.52705e-07 0)
(2.15834e-05 3.62934e-06 0)
(2.09391e-05 3.11064e-06 0)
(2.00289e-05 2.66776e-06 0)
(1.90108e-05 2.29531e-06 0)
(1.79816e-05 1.99299e-06 0)
(1.69815e-05 1.76479e-06 0)
(1.59522e-05 1.61823e-06 0)
(1.48259e-05 1.56519e-06 0)
(1.44057e-05 1.61718e-06 0)
(2.29902e-05 1.64706e-06 0)
(2.13121e-05 5.99638e-06 0)
(2.06647e-05 5.14688e-06 0)
(1.9752e-05 4.41977e-06 0)
(1.87328e-05 3.80581e-06 0)
(1.77055e-05 3.30475e-06 0)
(1.67122e-05 2.92392e-06 0)
(1.56974e-05 2.67701e-06 0)
(1.45935e-05 2.58531e-06 0)
(1.4189e-05 2.66831e-06 0)
(2.26036e-05 2.70942e-06 0)
(2.10057e-05 8.29542e-06 0)
(2.03367e-05 7.13706e-06 0)
(1.94059e-05 6.14128e-06 0)
(1.83733e-05 5.2949e-06 0)
(1.73387e-05 4.5983e-06 0)
(1.63469e-05 4.06321e-06 0)
(1.53461e-05 3.71129e-06 0)
(1.42686e-05 3.57596e-06 0)
(1.38793e-05 3.68538e-06 0)
(2.2043e-05 3.72295e-06 0)
(2.07766e-05 1.05271e-05 0)
(2.00475e-05 9.08782e-06 0)
(1.90676e-05 7.84198e-06 0)
(1.79963e-05 6.77307e-06 0)
(1.69345e-05 5.88301e-06 0)
(1.59296e-05 5.18925e-06 0)
(1.49342e-05 4.72412e-06 0)
(1.38786e-05 4.53817e-06 0)
(1.34948e-05 4.67001e-06 0)
(2.13311e-05 4.68098e-06 0)
(2.0755e-05 1.27059e-05 0)
(1.99043e-05 1.10167e-05 0)
(1.88266e-05 9.54038e-06 0)
(1.76778e-05 8.25838e-06 0)
(1.6557e-05 7.17528e-06 0)
(1.55135e-05 6.31541e-06 0)
(1.4505e-05 5.7252e-06 0)
(1.34564e-05 5.48182e-06 0)
(1.30553e-05 5.64096e-06 0)
(2.04853e-05 5.59561e-06 0)
(2.10747e-05 1.4777e-05 0)
(2.0018e-05 1.2878e-05 0)
(1.87786e-05 1.11978e-05 0)
(1.75017e-05 9.71892e-06 0)
(1.62799e-05 8.44902e-06 0)
(1.51625e-05 7.41894e-06 0)
(1.41138e-05 6.69188e-06 0)
(1.30497e-05 6.38977e-06 0)
(1.25946e-05 6.6075e-06 0)
(1.95e-05 6.47782e-06 0)
(2.18802e-05 1.67014e-05 0)
(2.05138e-05 1.46306e-05 0)
(1.90375e-05 1.2775e-05 0)
(1.75745e-05 1.11198e-05 0)
(1.62024e-05 9.67486e-06 0)
(1.49682e-05 8.47299e-06 0)
(1.38505e-05 7.58969e-06 0)
(1.27617e-05 7.21169e-06 0)
(1.22608e-05 7.54837e-06 0)
(1.85556e-05 7.31092e-06 0)
(2.33004e-05 1.96069e-05 0)
(2.15046e-05 1.72629e-05 0)
(1.97095e-05 1.51382e-05 0)
(1.7998e-05 1.32221e-05 0)
(1.64191e-05 1.15245e-05 0)
(1.50085e-05 1.00731e-05 0)
(1.37674e-05 8.94081e-06 0)
(1.26543e-05 8.39989e-06 0)
(1.22946e-05 8.96583e-06 0)
(1.87862e-05 8.90692e-06 0)
(2.34444e-05 4.07552e-05 0)
(2.12263e-05 3.57429e-05 0)
(1.9164e-05 3.122e-05 0)
(1.72659e-05 2.71629e-05 0)
(1.55229e-05 2.35768e-05 0)
(1.3922e-05 2.04814e-05 0)
(1.24256e-05 1.79001e-05 0)
(1.09664e-05 1.61363e-05 0)
(1.04337e-05 1.66996e-05 0)
(1.83932e-05 1.82285e-05 0)
)
;

boundaryField
{
    leftWall
    {
        type            noSlip;
    }
    rightWall
    {
        type            noSlip;
    }
    topWall
    {
        type            noSlip;
    }
    bottomWall
    {
        type            noSlip;
    }
    frontAndBackPlanes
    {
        type            empty;
    }
    procBoundary0to1
    {
        type            processor;
        value           nonuniform List<vector> 
20
(
(2.57751e-05 -4.63149e-05 0)
(2.49515e-05 -2.22061e-05 0)
(2.29411e-05 -1.90321e-05 0)
(2.17277e-05 -1.69429e-05 0)
(2.11463e-05 -1.46521e-05 0)
(2.1018e-05 -1.21965e-05 0)
(2.1175e-05 -9.64345e-06 0)
(2.14556e-05 -6.98621e-06 0)
(2.17232e-05 -4.23381e-06 0)
(2.18816e-05 -1.41849e-06 0)
(2.18816e-05 1.41852e-06 0)
(2.17232e-05 4.23385e-06 0)
(2.14556e-05 6.98624e-06 0)
(2.1175e-05 9.64347e-06 0)
(2.1018e-05 1.21965e-05 0)
(2.11463e-05 1.46521e-05 0)
(2.17277e-05 1.69429e-05 0)
(2.29411e-05 1.90321e-05 0)
(2.49515e-05 2.22061e-05 0)
(2.57751e-05 4.63148e-05 0)
)
;
    }
}


// ************************************************************************* //
