/*--------------------------------*- C++ -*----------------------------------*\
| =========                 |                                                 |
| \\      /  F ield         | OpenFOAM: The Open Source CFD Toolbox           |
|  \\    /   O peration     | Version:  2506                                  |
|   \\  /    A nd           | Website:  www.openfoam.com                      |
|    \\/     M anipulation  |                                                 |
\*---------------------------------------------------------------------------*/
FoamFile
{
    version     2.0;
    format      ascii;
    arch        "LSB;label=32;scalar=64";
    class       volScalarField;
    location    "3.5517553936";
    object      alphat;
}
// * * * * * * * * * * * * * * * * * * * * * * * * * * * * * * * * * * * * * //

dimensions      [1 -1 -1 0 0 0 0];

internalField   nonuniform List<scalar> 
400
(
0.0572206
0.103538
0.123685
0.135511
0.143505
0.149201
0.153291
0.156139
0.157949
0.158833
0.158839
0.157967
0.15617
0.153335
0.149259
0.143579
0.135604
0.1238
0.103678
0.0574401
0.103401
0.925904
1.33085
1.54901
1.68758
1.78244
1.84879
1.8942
1.92272
1.93654
1.93661
1.92294
1.89457
1.84932
1.78313
1.68844
1.55004
1.33206
0.927153
0.103682
0.123483
1.3302
2.1852
2.70376
3.04206
3.27354
3.43435
3.54361
3.61187
3.64482
3.64498
3.61234
3.5444
3.43546
3.27497
3.04381
2.70579
2.18738
1.33209
0.123806
0.135268
1.5479
2.70307
3.46627
3.98558
4.34768
4.60111
4.77369
4.88154
4.93357
4.9338
4.88222
4.77483
4.6027
4.3497
3.988
3.46899
2.70584
1.5501
0.135612
0.143232
1.68614
3.04078
3.9849
4.64937
5.12195
5.45635
5.68537
5.82888
5.8982
5.89848
5.82973
5.68678
5.45829
5.1244
4.65226
3.98807
3.04391
1.68852
0.143589
0.148905
1.78073
3.27178
4.34639
5.12129
5.68153
6.08211
6.3582
6.53181
6.61581
6.61613
6.53278
6.3598
6.08431
5.68429
5.1245
4.34985
3.27514
1.78324
0.14927
0.152977
1.84688
3.4322
4.5993
5.4551
6.08149
6.53321
6.84627
7.0438
7.13954
7.13989
7.04486
6.84801
6.53559
6.08445
5.45852
4.60295
3.43569
1.84946
0.153348
0.155811
1.89212
3.54113
4.77144
5.68361
6.35702
6.8457
7.18585
7.40105
7.5055
7.50588
7.40216
7.18768
6.8482
6.36012
5.68716
4.77522
3.54472
1.89475
0.156187
0.15761
1.92052
3.60913
4.87892
5.82668
6.53014
7.04272
7.40053
7.62733
7.73752
7.73791
7.62848
7.40242
7.0453
6.53333
5.83032
4.88277
3.61277
1.92317
0.157988
0.158485
1.93423
3.64187
4.93065
5.89563
6.61374
7.13802
7.50453
7.73706
7.8501
7.8505
7.73823
7.50645
7.14063
6.61696
5.89931
4.93454
3.64554
1.9369
0.158864
0.158485
1.93423
3.64187
4.93065
5.89563
6.61374
7.13802
7.50453
7.73706
7.85011
7.8505
7.73823
7.50645
7.14063
6.61696
5.89931
4.93454
3.64554
1.9369
0.158864
0.15761
1.92052
3.60913
4.87892
5.82668
6.53014
7.04272
7.40053
7.62733
7.73753
7.73791
7.62848
7.40242
7.0453
6.53333
5.83032
4.88277
3.61277
1.92317
0.157988
0.155811
1.89212
3.54113
4.77144
5.68361
6.35702
6.8457
7.18585
7.40105
7.5055
7.50588
7.40216
7.18768
6.8482
6.36012
5.68717
4.77522
3.54472
1.89475
0.156187
0.152977
1.84688
3.4322
4.5993
5.4551
6.08149
6.53321
6.84627
7.0438
7.13954
7.1399
7.04486
6.84801
6.53559
6.08445
5.45852
4.60295
3.43569
1.84946
0.153348
0.148905
1.78073
3.27178
4.34639
5.12129
5.68153
6.08211
6.3582
6.53181
6.61581
6.61613
6.53278
6.3598
6.08432
5.68429
5.1245
4.34986
3.27514
1.78324
0.14927
0.143232
1.68614
3.04078
3.9849
4.64937
5.12195
5.45635
5.68538
5.82888
5.8982
5.89848
5.82973
5.68678
5.45829
5.1244
4.65226
3.98807
3.04391
1.68852
0.143589
0.135268
1.5479
2.70307
3.46627
3.98558
4.34768
4.60111
4.77369
4.88154
4.93357
4.9338
4.88222
4.77483
4.6027
4.3497
3.988
3.46899
2.70584
1.5501
0.135612
0.123483
1.3302
2.1852
2.70376
3.04206
3.27354
3.43435
3.54361
3.61187
3.64482
3.64498
3.61234
3.5444
3.43546
3.27497
3.04381
2.70579
2.18738
1.33209
0.123806
0.103401
0.925904
1.33085
1.54901
1.68758
1.78244
1.84879
1.8942
1.92272
1.93654
1.93661
1.92294
1.89457
1.84932
1.78313
1.68844
1.55004
1.33206
0.927153
0.103682
0.0572206
0.103538
0.123685
0.135511
0.143505
0.149201
0.153291
0.156139
0.157949
0.158833
0.158839
0.157967
0.15617
0.153335
0.149259
0.143579
0.135604
0.1238
0.103678
0.0574401
)
;

boundaryField
{
    leftWall
    {
        type            compressible::alphatWallFunction;
        value           nonuniform List<scalar> 
20
(
0.0112227
0.0188624
0.0220835
0.0239517
0.0252035
0.026089
0.0267208
0.0271584
0.0274351
0.0275693
0.0275693
0.0274351
0.0271584
0.0267208
0.026089
0.0252035
0.0239517
0.0220835
0.0188624
0.0112227
)
;
    }
    rightWall
    {
        type            compressible::alphatWallFunction;
        value           nonuniform List<scalar> 
20
(
0.0128223
0.0222854
0.0262542
0.0285498
0.0300858
0.0311713
0.0319454
0.0324813
0.03282
0.0329843
0.0329843
0.03282
0.0324813
0.0319454
0.0311713
0.0300858
0.0285498
0.0262542
0.0222854
0.0128223
)
;
    }
    topWall
    {
        type            compressible::alphatWallFunction;
        value           nonuniform List<scalar> 
20
(
0.0128324
0.0222929
0.026258
0.0285523
0.0300875
0.0311723
0.0319458
0.0324813
0.0328197
0.0329837
0.0329835
0.0328191
0.0324802
0.0319442
0.0311701
0.0300846
0.0285487
0.0262533
0.0222848
0.0128223
)
;
    }
    bottomWall
    {
        type            compressible::alphatWallFunction;
        value           nonuniform List<scalar> 
20
(
0.0128324
0.0222929
0.026258
0.0285523
0.0300875
0.0311723
0.0319458
0.0324813
0.0328197
0.0329837
0.0329835
0.0328191
0.0324802
0.0319443
0.0311701
0.0300846
0.0285487
0.0262533
0.0222848
0.0128223
)
;
    }
    frontAndBackPlanes
    {
        type            empty;
    }
}


// ************************************************************************* //
