/*--------------------------------*- C++ -*----------------------------------*\
| =========                 |                                                 |
| \\      /  F ield         | OpenFOAM: The Open Source CFD Toolbox           |
|  \\    /   O peration     | Version:  2506                                  |
|   \\  /    A nd           | Website:  www.openfoam.com                      |
|    \\/     M anipulation  |                                                 |
\*---------------------------------------------------------------------------*/
FoamFile
{
    version     2.0;
    format      ascii;
    arch        "LSB;label=32;scalar=64";
    class       volScalarField;
    location    "3.5517553936";
    object      epsilon;
}
// * * * * * * * * * * * * * * * * * * * * * * * * * * * * * * * * * * * * * //

dimensions      [0 2 -3 0 0 0 0];

internalField   nonuniform List<scalar> 
400
(
0.00165292
0.00892549
0.0149495
0.019504
0.0230438
0.0257993
0.0278978
0.0294173
0.0304062
0.0308936
0.0308931
0.0304046
0.0294145
0.0278939
0.025794
0.0230373
0.0194965
0.014941
0.00891511
0.00164804
0.00893149
0.0071341
0.00857925
0.0100665
0.0113451
0.0123858
0.013197
0.0137924
0.0141829
0.0143762
0.0143761
0.0141824
0.0137916
0.0131959
0.0123841
0.0113429
0.0100637
0.00857548
0.00712863
0.0089158
0.0149594
0.00858086
0.00862421
0.0092747
0.00998269
0.0106174
0.011138
0.0115315
0.0117941
0.0119253
0.0119252
0.0117937
0.0115309
0.0111371
0.0106161
0.00998091
0.00927228
0.00862086
0.0085757
0.0149425
0.0195177
0.0100694
0.00927569
0.00945076
0.0098393
0.0102501
0.0106134
0.0108996
0.0110952
0.0111941
0.011194
0.0110949
0.010899
0.0106126
0.0102489
0.0098376
0.00944842
0.00927238
0.0100641
0.0194987
0.0230613
0.0113491
0.00998443
0.00984
0.0100114
0.0102682
0.0105224
0.010734
0.010883
0.0109596
0.0109595
0.0108827
0.0107334
0.0105215
0.0102669
0.0100097
0.00983766
0.00998108
0.0113434
0.02304
0.0258203
0.0123907
0.0106197
0.0102514
0.0102687
0.0104139
0.0105879
0.0107441
0.0108582
0.0109179
0.0109178
0.0108579
0.0107435
0.0105871
0.0104127
0.010267
0.010249
0.0106163
0.0123847
0.025797
0.027922
0.0132027
0.0111409
0.0106151
0.0105233
0.0105883
0.0107036
0.0108186
0.0109067
0.0109537
0.0109536
0.0109063
0.0108181
0.0107028
0.0105871
0.0105216
0.0106127
0.0111374
0.0131965
0.0278969
0.0294438
0.0137987
0.0115347
0.0109016
0.0107352
0.0107447
0.0108189
0.0109048
0.0109741
0.0110121
0.011012
0.0109738
0.0109042
0.0108181
0.0107435
0.0107335
0.0108992
0.0115312
0.0137922
0.0294174
0.0304346
0.0141897
0.0117976
0.0110974
0.0108845
0.0108591
0.0109072
0.0109743
0.0110317
0.0110637
0.0110636
0.0110314
0.0109738
0.0109063
0.0108579
0.0108827
0.011095
0.011794
0.0141831
0.0304073
0.0309232
0.0143833
0.011929
0.0111965
0.0109612
0.010919
0.0109544
0.0110124
0.0110639
0.011093
0.0110929
0.0110635
0.0110119
0.0109535
0.0109177
0.0109594
0.0111941
0.0119254
0.0143766
0.0308954
0.0309232
0.0143833
0.011929
0.0111965
0.0109612
0.010919
0.0109544
0.0110124
0.0110639
0.011093
0.0110929
0.0110635
0.0110119
0.0109535
0.0109177
0.0109594
0.0111941
0.0119254
0.0143766
0.0308954
0.0304346
0.0141897
0.0117976
0.0110974
0.0108845
0.0108591
0.0109072
0.0109743
0.0110317
0.0110637
0.0110636
0.0110313
0.0109738
0.0109063
0.0108579
0.0108827
0.011095
0.011794
0.0141831
0.0304073
0.0294438
0.0137987
0.0115347
0.0109016
0.0107352
0.0107447
0.0108189
0.0109048
0.0109741
0.0110121
0.0110119
0.0109738
0.0109042
0.0108181
0.0107435
0.0107335
0.0108992
0.0115312
0.0137922
0.0294174
0.027922
0.0132027
0.0111409
0.0106151
0.0105233
0.0105883
0.0107036
0.0108186
0.0109067
0.0109537
0.0109536
0.0109063
0.0108181
0.0107028
0.0105871
0.0105216
0.0106127
0.0111374
0.0131965
0.0278969
0.0258203
0.0123907
0.0106197
0.0102514
0.0102687
0.0104139
0.0105879
0.0107441
0.0108582
0.0109179
0.0109178
0.0108579
0.0107435
0.0105871
0.0104127
0.010267
0.010249
0.0106163
0.0123847
0.025797
0.0230613
0.0113491
0.00998443
0.00984
0.0100114
0.0102682
0.0105224
0.010734
0.010883
0.0109596
0.0109595
0.0108827
0.0107334
0.0105215
0.0102669
0.0100097
0.00983766
0.00998108
0.0113434
0.02304
0.0195177
0.0100694
0.00927569
0.00945076
0.0098393
0.0102501
0.0106134
0.0108996
0.0110952
0.0111941
0.011194
0.0110949
0.010899
0.0106126
0.0102489
0.0098376
0.00944842
0.00927238
0.0100641
0.0194987
0.0149594
0.00858086
0.00862421
0.0092747
0.00998269
0.0106174
0.011138
0.0115315
0.0117941
0.0119253
0.0119252
0.0117937
0.0115309
0.0111371
0.0106161
0.00998091
0.00927228
0.00862086
0.0085757
0.0149425
0.00893149
0.0071341
0.00857925
0.0100665
0.0113451
0.0123858
0.013197
0.0137924
0.0141829
0.0143762
0.0143761
0.0141824
0.0137916
0.0131959
0.0123841
0.0113429
0.0100637
0.00857548
0.00712863
0.00891581
0.00165292
0.00892549
0.0149495
0.019504
0.0230438
0.0257993
0.0278978
0.0294173
0.0304062
0.0308936
0.0308931
0.0304046
0.0294145
0.0278939
0.025794
0.0230373
0.0194965
0.014941
0.00891511
0.00164804
)
;

boundaryField
{
    leftWall
    {
        type            epsilonWallFunction;
        blending        stepwise;
        value           nonuniform List<scalar> 
20
(
0.00165292
0.00893149
0.0149594
0.0195177
0.0230613
0.0258203
0.027922
0.0294438
0.0304346
0.0309232
0.0309232
0.0304346
0.0294438
0.027922
0.0258203
0.0230613
0.0195177
0.0149594
0.00893149
0.00165292
)
;
    }
    rightWall
    {
        type            epsilonWallFunction;
        blending        stepwise;
        value           nonuniform List<scalar> 
20
(
0.00164804
0.0089158
0.0149425
0.0194987
0.02304
0.025797
0.0278969
0.0294174
0.0304073
0.0308954
0.0308954
0.0304073
0.0294174
0.0278969
0.025797
0.02304
0.0194987
0.0149425
0.00891581
0.00164804
)
;
    }
    topWall
    {
        type            epsilonWallFunction;
        blending        stepwise;
        value           nonuniform List<scalar> 
20
(
0.00165292
0.00892549
0.0149495
0.019504
0.0230438
0.0257993
0.0278978
0.0294173
0.0304062
0.0308936
0.0308931
0.0304046
0.0294145
0.0278939
0.025794
0.0230373
0.0194965
0.014941
0.00891511
0.00164804
)
;
    }
    bottomWall
    {
        type            epsilonWallFunction;
        blending        stepwise;
        value           nonuniform List<scalar> 
20
(
0.00165292
0.00892549
0.0149495
0.019504
0.0230438
0.0257993
0.0278978
0.0294173
0.0304062
0.0308936
0.0308931
0.0304046
0.0294145
0.0278939
0.025794
0.0230373
0.0194965
0.014941
0.00891511
0.00164804
)
;
    }
    frontAndBackPlanes
    {
        type            empty;
    }
}


// ************************************************************************* //
