/*--------------------------------*- C++ -*----------------------------------*\
| =========                 |                                                 |
| \\      /  F ield         | OpenFOAM: The Open Source CFD Toolbox           |
|  \\    /   O peration     | Version:  2506                                  |
|   \\  /    A nd           | Website:  www.openfoam.com                      |
|    \\/     M anipulation  |                                                 |
\*---------------------------------------------------------------------------*/
FoamFile
{
    version     2.0;
    format      ascii;
    arch        "LSB;label=32;scalar=64";
    class       volScalarField;
    location    "3.5517553936";
    object      k;
}
// * * * * * * * * * * * * * * * * * * * * * * * * * * * * * * * * * * * * * //

dimensions      [0 2 -2 0 0 0 0];

internalField   nonuniform List<scalar> 
400
(
0.00102652
0.00320501
0.0045322
0.00541785
0.00605965
0.00653728
0.00689015
0.00714043
0.00730117
0.00737979
0.0073797
0.00730087
0.00713993
0.00688943
0.00653632
0.00605844
0.00541638
0.00453046
0.00320255
0.00102489
0.00320645
0.00856909
0.0112632
0.0131605
0.0145814
0.0156566
0.0164583
0.01703
0.0173983
0.0175787
0.0175785
0.0173976
0.0170288
0.0164566
0.0156543
0.0145784
0.0131568
0.0112587
0.00856392
0.00320274
0.00453423
0.0112642
0.0144704
0.0166897
0.0183645
0.0196452
0.0206081
0.0212989
0.0217456
0.021965
0.0219647
0.0217449
0.0212976
0.0206062
0.0196426
0.0183613
0.0166857
0.0144656
0.0112589
0.00453081
0.00542039
0.0131626
0.0166908
0.0190758
0.0208692
0.0222453
0.0232851
0.0240342
0.0245202
0.0247594
0.0247591
0.0245194
0.0240328
0.0232831
0.0222426
0.0208657
0.0190716
0.0166859
0.0131573
0.00541684
0.00606274
0.0145844
0.0183666
0.0208702
0.0227366
0.0241664
0.0252482
0.0260292
0.0265369
0.026787
0.0267867
0.0265361
0.0260278
0.0252461
0.0241636
0.022733
0.0208659
0.0183616
0.014579
0.00605896
0.00654087
0.0156605
0.0196482
0.0222472
0.0241674
0.0256325
0.0267398
0.0275395
0.0280596
0.028316
0.0283157
0.0280587
0.0275379
0.0267376
0.0256296
0.0241637
0.0222428
0.019643
0.0156549
0.00653686
0.00689417
0.016463
0.0206119
0.0232879
0.02525
0.0267406
0.0278649
0.0286761
0.0292037
0.0294638
0.0294635
0.0292028
0.0286745
0.0278626
0.0267376
0.0252462
0.0232833
0.0206066
0.0164572
0.00688996
0.00714479
0.0170353
0.0213033
0.0240376
0.0260317
0.027541
0.0286768
0.0294955
0.0300277
0.03029
0.0302897
0.0300267
0.0294939
0.0286745
0.0275379
0.0260278
0.024033
0.0212979
0.0170294
0.00714043
0.00730578
0.0174041
0.0217506
0.0245242
0.0265399
0.0280617
0.029205
0.0300283
0.0305632
0.0308268
0.0308264
0.0305622
0.0300266
0.0292026
0.0280586
0.026536
0.0245195
0.0217451
0.017398
0.00730132
0.00738459
0.0175848
0.0219703
0.0247637
0.0267904
0.0283185
0.0294655
0.030291
0.0308272
0.0310914
0.031091
0.0308262
0.0302893
0.0294631
0.0283154
0.0267865
0.024759
0.0219648
0.0175788
0.00738007
0.00738459
0.0175848
0.0219703
0.0247637
0.0267904
0.0283185
0.0294655
0.030291
0.0308272
0.0310914
0.031091
0.0308262
0.0302893
0.0294631
0.0283154
0.0267865
0.024759
0.0219648
0.0175788
0.00738007
0.00730578
0.0174041
0.0217506
0.0245242
0.0265399
0.0280617
0.029205
0.0300283
0.0305632
0.0308268
0.0308264
0.0305622
0.0300266
0.0292026
0.0280586
0.026536
0.0245195
0.0217451
0.017398
0.00730132
0.00714479
0.0170353
0.0213033
0.0240376
0.0260317
0.027541
0.0286768
0.0294955
0.0300277
0.03029
0.0302897
0.0300267
0.0294939
0.0286745
0.0275379
0.0260278
0.024033
0.0212979
0.0170294
0.00714043
0.00689416
0.016463
0.0206119
0.0232879
0.02525
0.0267406
0.0278649
0.0286761
0.0292037
0.0294638
0.0294635
0.0292028
0.0286745
0.0278626
0.0267376
0.0252462
0.0232833
0.0206066
0.0164572
0.00688996
0.00654086
0.0156605
0.0196482
0.0222472
0.0241674
0.0256325
0.0267398
0.0275395
0.0280596
0.028316
0.0283157
0.0280587
0.0275379
0.0267376
0.0256296
0.0241637
0.0222428
0.019643
0.0156549
0.00653686
0.00606274
0.0145844
0.0183666
0.0208702
0.0227366
0.0241664
0.0252482
0.0260292
0.0265369
0.026787
0.0267867
0.0265361
0.0260278
0.0252461
0.0241636
0.022733
0.0208659
0.0183616
0.014579
0.00605896
0.00542039
0.0131626
0.0166908
0.0190758
0.0208692
0.0222453
0.0232851
0.0240342
0.0245202
0.0247594
0.0247591
0.0245194
0.0240328
0.0232831
0.0222426
0.0208657
0.0190716
0.0166859
0.0131573
0.00541684
0.00453423
0.0112642
0.0144704
0.0166897
0.0183645
0.0196452
0.0206081
0.0212989
0.0217456
0.021965
0.0219647
0.0217449
0.0212976
0.0206062
0.0196426
0.0183613
0.0166857
0.0144656
0.0112589
0.00453081
0.00320645
0.00856909
0.0112632
0.0131605
0.0145814
0.0156566
0.0164583
0.01703
0.0173983
0.0175787
0.0175785
0.0173976
0.0170288
0.0164566
0.0156543
0.0145784
0.0131568
0.0112587
0.00856392
0.00320274
0.00102652
0.00320501
0.0045322
0.00541785
0.00605965
0.00653728
0.00689015
0.00714043
0.00730117
0.00737979
0.0073797
0.00730087
0.00713993
0.00688943
0.00653632
0.00605844
0.00541638
0.00453046
0.00320255
0.00102489
)
;

boundaryField
{
    leftWall
    {
        type            kqRWallFunction;
        value           nonuniform List<scalar> 
20
(
0.00102652
0.00320645
0.00453423
0.00542039
0.00606274
0.00654087
0.00689417
0.00714479
0.00730578
0.00738459
0.00738459
0.00730578
0.00714479
0.00689416
0.00654086
0.00606274
0.00542039
0.00453423
0.00320645
0.00102652
)
;
    }
    rightWall
    {
        type            kqRWallFunction;
        value           nonuniform List<scalar> 
20
(
0.00102489
0.00320274
0.00453081
0.00541684
0.00605896
0.00653686
0.00688996
0.00714043
0.00730132
0.00738007
0.00738007
0.00730132
0.00714043
0.00688996
0.00653686
0.00605896
0.00541684
0.00453081
0.00320274
0.00102489
)
;
    }
    topWall
    {
        type            kqRWallFunction;
        value           nonuniform List<scalar> 
20
(
0.00102652
0.00320501
0.0045322
0.00541785
0.00605965
0.00653728
0.00689015
0.00714043
0.00730117
0.00737979
0.0073797
0.00730087
0.00713993
0.00688943
0.00653632
0.00605844
0.00541638
0.00453046
0.00320255
0.00102489
)
;
    }
    bottomWall
    {
        type            kqRWallFunction;
        value           nonuniform List<scalar> 
20
(
0.00102652
0.00320501
0.0045322
0.00541785
0.00605965
0.00653728
0.00689015
0.00714043
0.00730117
0.00737979
0.0073797
0.00730087
0.00713993
0.00688943
0.00653632
0.00605844
0.00541638
0.00453046
0.00320255
0.00102489
)
;
    }
    frontAndBackPlanes
    {
        type            empty;
    }
}


// ************************************************************************* //
