/*--------------------------------*- C++ -*----------------------------------*\
| =========                 |                                                 |
| \\      /  F ield         | OpenFOAM: The Open Source CFD Toolbox           |
|  \\    /   O peration     | Version:  2506                                  |
|   \\  /    A nd           | Website:  www.openfoam.com                      |
|    \\/     M anipulation  |                                                 |
\*---------------------------------------------------------------------------*/
FoamFile
{
    version     2.0;
    format      ascii;
    arch        "LSB;label=32;scalar=64";
    class       volScalarField;
    location    "3.5517553936";
    object      nut;
}
// * * * * * * * * * * * * * * * * * * * * * * * * * * * * * * * * * * * * * //

dimensions      [0 2 -1 0 0 0 0];

internalField   nonuniform List<scalar> 
400
(
5.73756e-05
0.000103578
0.000123662
0.000135448
0.000143411
0.000149083
0.000153154
0.000155987
0.000157785
0.000158658
0.000158657
0.00015778
0.00015598
0.000153144
0.00014907
0.000143395
0.000135427
0.000123637
0.00010354
5.73625e-05
0.000103602
0.000926345
0.0013308
0.00154849
0.00168667
0.00178121
0.0018473
0.00189249
0.00192084
0.00193452
0.00193449
0.00192075
0.00189234
0.00184708
0.00178092
0.00168631
0.00154806
0.00133033
0.000925936
0.000103544
0.00012369
0.00133079
0.00218517
0.00270297
0.00304056
0.00327143
0.00343172
0.00354055
0.00360846
0.00364113
0.00364108
0.00360831
0.0035403
0.00343137
0.00327098
0.00304002
0.00270237
0.00218458
0.00133036
0.000123643
0.00013548
0.00154853
0.00270303
0.00346532
0.00398372
0.00434499
0.00459771
0.0047697
0.00487705
0.00492869
0.00492863
0.00487687
0.00476939
0.00459729
0.00434446
0.0039831
0.00346465
0.00270241
0.00154811
0.000135434
0.000143449
0.00168679
0.00304073
0.00398383
0.00464726
0.00511888
0.00545243
0.00568073
0.00582364
0.00589248
0.00589241
0.00582343
0.00568039
0.00545196
0.0051183
0.00464659
0.00398312
0.00304008
0.00168636
0.000143402
0.000149125
0.0017814
0.00327171
0.00434524
0.00511902
0.0056782
0.00607783
0.0063531
0.00652603
0.00660948
0.00660941
0.0065258
0.00635272
0.00607732
0.00567757
0.00511831
0.0043445
0.00327104
0.00178097
0.000149077
0.0001532
0.00184755
0.00343211
0.00459809
0.00545271
0.00607797
0.00652867
0.00684085
0.00703764
0.00713279
0.00713271
0.00703741
0.00684046
0.00652813
0.00607732
0.00545196
0.00459732
0.00343142
0.00184712
0.000153151
0.000156037
0.0018928
0.00354104
0.0047702
0.00568114
0.00635338
0.006841
0.00718021
0.00739464
0.00749847
0.00749838
0.00739439
0.0071798
0.00684044
0.0063527
0.00568037
0.0047694
0.00354033
0.00189236
0.000155986
0.000157837
0.0019212
0.00360903
0.00487765
0.00582416
0.00652643
0.00703791
0.00739476
0.00762076
0.00773031
0.00773023
0.0076205
0.00739434
0.00703734
0.00652573
0.00582337
0.00487684
0.00360831
0.00192075
0.000157786
0.000158712
0.00193492
0.00364177
0.00492937
0.0058931
0.00660999
0.00713316
0.0074987
0.00773042
0.00784281
0.00784272
0.00773016
0.00749828
0.00713259
0.00660928
0.0058923
0.00492855
0.00364104
0.00193447
0.000158661
0.000158712
0.00193492
0.00364177
0.00492937
0.0058931
0.00660999
0.00713316
0.0074987
0.00773042
0.00784281
0.00784272
0.00773016
0.00749828
0.00713259
0.00660928
0.0058923
0.00492855
0.00364104
0.00193447
0.000158661
0.000157837
0.0019212
0.00360903
0.00487765
0.00582416
0.00652643
0.00703791
0.00739476
0.00762076
0.00773031
0.00773023
0.00762051
0.00739434
0.00703734
0.00652573
0.00582338
0.00487684
0.00360831
0.00192075
0.000157786
0.000156037
0.0018928
0.00354104
0.0047702
0.00568114
0.00635338
0.006841
0.00718021
0.00739464
0.00749847
0.00749839
0.00739439
0.00717981
0.00684044
0.0063527
0.00568037
0.0047694
0.00354033
0.00189236
0.000155986
0.0001532
0.00184755
0.00343211
0.00459809
0.00545271
0.00607797
0.00652867
0.00684085
0.00703765
0.0071328
0.00713271
0.00703741
0.00684046
0.00652814
0.00607732
0.00545196
0.00459732
0.00343142
0.00184712
0.000153151
0.000149125
0.0017814
0.00327171
0.00434524
0.00511902
0.0056782
0.00607783
0.0063531
0.00652603
0.00660949
0.00660941
0.0065258
0.00635273
0.00607732
0.00567757
0.00511831
0.0043445
0.00327104
0.00178097
0.000149077
0.000143449
0.00168679
0.00304073
0.00398383
0.00464726
0.00511888
0.00545243
0.00568073
0.00582364
0.00589248
0.00589241
0.00582343
0.00568039
0.00545196
0.0051183
0.00464659
0.00398312
0.00304008
0.00168636
0.000143402
0.00013548
0.00154853
0.00270303
0.00346532
0.00398372
0.00434499
0.00459771
0.0047697
0.00487705
0.00492869
0.00492863
0.00487687
0.0047694
0.00459729
0.00434446
0.0039831
0.00346465
0.00270241
0.00154811
0.000135434
0.00012369
0.00133079
0.00218517
0.00270297
0.00304056
0.00327143
0.00343172
0.00354055
0.00360846
0.00364113
0.00364108
0.00360831
0.00354031
0.00343137
0.00327098
0.00304003
0.00270237
0.00218458
0.00133036
0.000123643
0.000103602
0.000926345
0.0013308
0.00154849
0.00168667
0.00178121
0.0018473
0.00189249
0.00192084
0.00193452
0.00193449
0.00192075
0.00189234
0.00184708
0.00178092
0.00168631
0.00154806
0.00133033
0.000925937
0.000103544
5.73756e-05
0.000103578
0.000123662
0.000135448
0.000143411
0.000149083
0.000153154
0.000155987
0.000157785
0.000158658
0.000158657
0.00015778
0.00015598
0.000153144
0.00014907
0.000143395
0.000135427
0.000123637
0.00010354
5.73625e-05
)
;

boundaryField
{
    leftWall
    {
        type            nutkWallFunction;
        blending        stepwise;
        value           nonuniform List<scalar> 
20
(
9.79902e-06
1.64696e-05
1.92821e-05
2.09133e-05
2.20063e-05
2.27795e-05
2.33312e-05
2.37132e-05
2.39548e-05
2.4072e-05
2.4072e-05
2.39548e-05
2.37132e-05
2.33312e-05
2.27795e-05
2.20063e-05
2.09133e-05
1.92821e-05
1.64696e-05
9.79902e-06
)
;
    }
    rightWall
    {
        type            nutkWallFunction;
        blending        stepwise;
        value           nonuniform List<scalar> 
20
(
1.08841e-05
1.89169e-05
2.22858e-05
2.42344e-05
2.55382e-05
2.64596e-05
2.71167e-05
2.75716e-05
2.78591e-05
2.79986e-05
2.79986e-05
2.78591e-05
2.75716e-05
2.71167e-05
2.64596e-05
2.55382e-05
2.42344e-05
2.22858e-05
1.89169e-05
1.08841e-05
)
;
    }
    topWall
    {
        type            nutkWallFunction;
        blending        stepwise;
        value           nonuniform List<scalar> 
20
(
1.08928e-05
1.89232e-05
2.2289e-05
2.42365e-05
2.55396e-05
2.64604e-05
2.71171e-05
2.75716e-05
2.78588e-05
2.79981e-05
2.79979e-05
2.78583e-05
2.75707e-05
2.71157e-05
2.64586e-05
2.55372e-05
2.42334e-05
2.2285e-05
1.89164e-05
1.08841e-05
)
;
    }
    bottomWall
    {
        type            nutkWallFunction;
        blending        stepwise;
        value           nonuniform List<scalar> 
20
(
1.08928e-05
1.89232e-05
2.2289e-05
2.42365e-05
2.55396e-05
2.64604e-05
2.71171e-05
2.75716e-05
2.78588e-05
2.79981e-05
2.79979e-05
2.78583e-05
2.75707e-05
2.71157e-05
2.64586e-05
2.55372e-05
2.42334e-05
2.2285e-05
1.89164e-05
1.08841e-05
)
;
    }
    frontAndBackPlanes
    {
        type            empty;
    }
}


// ************************************************************************* //
