/*--------------------------------*- C++ -*----------------------------------*\
| =========                 |                                                 |
| \\      /  F ield         | OpenFOAM: The Open Source CFD Toolbox           |
|  \\    /   O peration     | Version:  2506                                  |
|   \\  /    A nd           | Website:  www.openfoam.com                      |
|    \\/     M anipulation  |                                                 |
\*---------------------------------------------------------------------------*/
FoamFile
{
    version     2.0;
    format      ascii;
    arch        "LSB;label=32;scalar=64";
    class       volScalarField;
    location    "3.5517553936";
    object      rho;
}
// * * * * * * * * * * * * * * * * * * * * * * * * * * * * * * * * * * * * * //

dimensions      [1 -3 0 0 0 0 0];

internalField   nonuniform List<scalar> 
400
(
997.298
999.615
1000.19
1000.47
1000.65
1000.79
1000.89
1000.98
1001.04
1001.1
1001.15
1001.19
1001.22
1001.24
1001.27
1001.29
1001.3
1001.32
1001.33
1001.35
998.056
999.524
1000.04
1000.34
1000.54
1000.69
1000.81
1000.9
1000.98
1001.04
1001.1
1001.14
1001.18
1001.21
1001.24
1001.26
1001.28
1001.3
1001.31
1001.33
998.328
999.558
1000.01
1000.29
1000.49
1000.65
1000.77
1000.86
1000.94
1001.01
1001.07
1001.12
1001.16
1001.19
1001.22
1001.25
1001.27
1001.28
1001.3
1001.32
998.436
999.59
1000.01
1000.28
1000.47
1000.62
1000.74
1000.84
1000.92
1000.99
1001.05
1001.1
1001.14
1001.18
1001.21
1001.23
1001.25
1001.27
1001.29
1001.31
998.491
999.612
1000.02
1000.27
1000.45
1000.6
1000.72
1000.82
1000.9
1000.97
1001.03
1001.08
1001.13
1001.16
1001.19
1001.22
1001.24
1001.26
1001.28
1001.3
998.523
999.627
1000.02
1000.26
1000.44
1000.59
1000.7
1000.8
1000.89
1000.96
1001.02
1001.07
1001.11
1001.15
1001.18
1001.21
1001.23
1001.25
1001.27
1001.29
998.543
999.637
1000.02
1000.26
1000.44
1000.58
1000.69
1000.79
1000.88
1000.95
1001.01
1001.06
1001.1
1001.14
1001.17
1001.2
1001.23
1001.25
1001.27
1001.29
998.556
999.643
1000.03
1000.26
1000.43
1000.57
1000.69
1000.78
1000.87
1000.94
1001
1001.05
1001.1
1001.14
1001.17
1001.2
1001.22
1001.24
1001.26
1001.28
998.564
999.646
1000.03
1000.26
1000.43
1000.57
1000.68
1000.78
1000.86
1000.93
1000.99
1001.05
1001.09
1001.13
1001.16
1001.19
1001.22
1001.24
1001.26
1001.28
998.568
999.648
1000.03
1000.26
1000.43
1000.57
1000.68
1000.78
1000.86
1000.93
1000.99
1001.04
1001.09
1001.13
1001.16
1001.19
1001.21
1001.24
1001.25
1001.28
998.568
999.648
1000.03
1000.26
1000.43
1000.57
1000.68
1000.78
1000.86
1000.93
1000.99
1001.04
1001.09
1001.13
1001.16
1001.19
1001.21
1001.24
1001.25
1001.28
998.564
999.646
1000.03
1000.26
1000.43
1000.57
1000.68
1000.78
1000.86
1000.93
1000.99
1001.05
1001.09
1001.13
1001.16
1001.19
1001.22
1001.24
1001.26
1001.28
998.556
999.643
1000.03
1000.26
1000.43
1000.57
1000.69
1000.78
1000.87
1000.94
1001
1001.05
1001.1
1001.14
1001.17
1001.2
1001.22
1001.24
1001.26
1001.28
998.543
999.637
1000.02
1000.26
1000.44
1000.58
1000.69
1000.79
1000.88
1000.95
1001.01
1001.06
1001.1
1001.14
1001.17
1001.2
1001.23
1001.25
1001.27
1001.29
998.523
999.627
1000.02
1000.26
1000.44
1000.59
1000.7
1000.8
1000.89
1000.96
1001.02
1001.07
1001.11
1001.15
1001.18
1001.21
1001.23
1001.25
1001.27
1001.29
998.491
999.612
1000.02
1000.27
1000.45
1000.6
1000.72
1000.82
1000.9
1000.97
1001.03
1001.08
1001.13
1001.16
1001.19
1001.22
1001.24
1001.26
1001.28
1001.3
998.436
999.59
1000.01
1000.28
1000.47
1000.62
1000.74
1000.84
1000.92
1000.99
1001.05
1001.1
1001.14
1001.18
1001.21
1001.23
1001.25
1001.27
1001.29
1001.31
998.328
999.558
1000.01
1000.29
1000.49
1000.65
1000.77
1000.86
1000.94
1001.01
1001.07
1001.12
1001.16
1001.19
1001.22
1001.25
1001.27
1001.28
1001.3
1001.32
998.056
999.524
1000.04
1000.34
1000.54
1000.69
1000.81
1000.9
1000.98
1001.04
1001.1
1001.14
1001.18
1001.21
1001.24
1001.26
1001.28
1001.3
1001.31
1001.33
997.298
999.615
1000.19
1000.47
1000.65
1000.79
1000.89
1000.98
1001.04
1001.1
1001.15
1001.19
1001.22
1001.24
1001.27
1001.29
1001.3
1001.32
1001.33
1001.35
)
;

boundaryField
{
    leftWall
    {
        type            calculated;
        value           uniform 973.493;
    }
    rightWall
    {
        type            calculated;
        value           uniform 1001.36;
    }
    topWall
    {
        type            calculated;
        value           uniform 1001.36;
    }
    bottomWall
    {
        type            calculated;
        value           uniform 1001.36;
    }
    frontAndBackPlanes
    {
        type            empty;
    }
}


// ************************************************************************* //
