/*--------------------------------*- C++ -*----------------------------------*\
| =========                 |                                                 |
| \\      /  F ield         | OpenFOAM: The Open Source CFD Toolbox           |
|  \\    /   O peration     | Version:  2506                                  |
|   \\  /    A nd           | Website:  www.openfoam.com                      |
|    \\/     M anipulation  |                                                 |
\*---------------------------------------------------------------------------*/
FoamFile
{
    version     2.0;
    format      ascii;
    arch        "LSB;label=32;scalar=64";
    class       volScalarField;
    location    "3.5517553936";
    object      T;
}
// * * * * * * * * * * * * * * * * * * * * * * * * * * * * * * * * * * * * * //

dimensions      [0 0 0 1 0 0 0];

internalField   nonuniform List<scalar> 
400
(
289.215
280.041
277.727
276.603
275.864
275.32
274.897
274.559
274.283
274.056
273.867
273.71
273.579
273.469
273.377
273.299
273.231
273.171
273.11
273.031
286.234
280.403
278.344
277.146
276.327
275.717
275.241
274.859
274.545
274.285
274.068
273.885
273.732
273.603
273.494
273.401
273.321
273.252
273.187
273.109
285.162
280.267
278.44
277.316
276.512
275.898
275.41
275.013
274.685
274.412
274.181
273.987
273.823
273.685
273.567
273.467
273.382
273.309
273.241
273.161
284.733
280.139
278.443
277.385
276.611
276.008
275.521
275.12
274.786
274.505
274.267
274.066
273.895
273.75
273.627
273.523
273.434
273.357
273.287
273.203
284.516
280.05
278.427
277.417
276.67
276.081
275.6
275.2
274.863
274.578
274.336
274.13
273.954
273.805
273.678
273.57
273.478
273.399
273.326
273.237
284.388
279.992
278.411
277.433
276.708
276.132
275.657
275.26
274.923
274.636
274.391
274.182
274.003
273.85
273.72
273.61
273.516
273.435
273.36
273.266
284.307
279.953
278.399
277.442
276.732
276.166
275.698
275.304
274.968
274.681
274.434
274.223
274.042
273.887
273.755
273.643
273.547
273.464
273.387
273.289
284.256
279.929
278.391
277.447
276.748
276.19
275.727
275.335
275
274.713
274.466
274.253
274.071
273.914
273.781
273.667
273.57
273.486
273.407
273.307
284.226
279.914
278.386
277.45
276.758
276.205
275.745
275.355
275.021
274.734
274.487
274.273
274.09
273.933
273.798
273.684
273.586
273.501
273.421
273.319
284.211
279.907
278.384
277.452
276.763
276.212
275.754
275.365
275.032
274.745
274.497
274.283
274.1
273.942
273.807
273.692
273.594
273.508
273.427
273.325
284.211
279.907
278.384
277.452
276.763
276.212
275.754
275.365
275.032
274.745
274.497
274.283
274.1
273.942
273.807
273.692
273.594
273.508
273.427
273.325
284.226
279.914
278.386
277.45
276.758
276.205
275.745
275.355
275.021
274.734
274.487
274.273
274.09
273.933
273.798
273.684
273.586
273.501
273.421
273.319
284.256
279.929
278.391
277.447
276.748
276.19
275.727
275.335
275
274.713
274.466
274.253
274.071
273.914
273.781
273.667
273.57
273.486
273.407
273.307
284.307
279.953
278.399
277.442
276.732
276.166
275.698
275.304
274.968
274.681
274.434
274.223
274.042
273.887
273.755
273.643
273.547
273.464
273.387
273.289
284.388
279.992
278.411
277.433
276.708
276.132
275.657
275.26
274.923
274.636
274.391
274.182
274.003
273.85
273.72
273.61
273.516
273.435
273.36
273.266
284.516
280.05
278.427
277.417
276.67
276.081
275.6
275.2
274.863
274.578
274.336
274.13
273.954
273.805
273.678
273.57
273.478
273.399
273.326
273.237
284.733
280.139
278.443
277.385
276.611
276.008
275.521
275.12
274.786
274.505
274.267
274.066
273.895
273.75
273.627
273.523
273.434
273.357
273.287
273.203
285.162
280.267
278.44
277.316
276.512
275.898
275.41
275.013
274.685
274.412
274.181
273.987
273.823
273.685
273.567
273.467
273.382
273.309
273.241
273.161
286.234
280.403
278.344
277.146
276.327
275.717
275.241
274.859
274.545
274.285
274.068
273.885
273.732
273.603
273.494
273.401
273.321
273.252
273.187
273.109
289.215
280.041
277.727
276.603
275.864
275.32
274.897
274.559
274.283
274.056
273.867
273.71
273.579
273.469
273.377
273.299
273.231
273.171
273.11
273.031
)
;

boundaryField
{
    leftWall
    {
        type            fixedValue;
        value           uniform 373;
    }
    rightWall
    {
        type            fixedValue;
        value           uniform 273;
    }
    topWall
    {
        type            fixedValue;
        value           uniform 273;
    }
    bottomWall
    {
        type            fixedValue;
        value           uniform 273;
    }
    frontAndBackPlanes
    {
        type            empty;
    }
}


// ************************************************************************* //
