/*--------------------------------*- C++ -*----------------------------------*\
| =========                 |                                                 |
| \\      /  F ield         | OpenFOAM: The Open Source CFD Toolbox           |
|  \\    /   O peration     | Version:  2506                                  |
|   \\  /    A nd           | Website:  www.openfoam.com                      |
|    \\/     M anipulation  |                                                 |
\*---------------------------------------------------------------------------*/
FoamFile
{
    version     2.0;
    format      ascii;
    arch        "LSB;label=32;scalar=64";
    class       volScalarField;
    location    "1.9290251";
    object      alphat;
}
// * * * * * * * * * * * * * * * * * * * * * * * * * * * * * * * * * * * * * //

dimensions      [1 -1 -1 0 0 0 0];

internalField   nonuniform List<scalar> 
400
(
0.0880147
0.159303
0.190875
0.209846
0.222937
0.232441
0.239379
0.244277
0.247419
0.248959
0.248965
0.247435
0.244305
0.239421
0.232498
0.223012
0.209943
0.191002
0.159463
0.0882351
0.159091
1.39174
1.99096
2.31527
2.52205
2.66396
2.76336
2.83143
2.87418
2.89487
2.89495
2.87441
2.83182
2.76394
2.66473
2.52304
2.31651
1.99247
1.39342
0.159468
0.190563
1.98994
3.22905
3.97748
4.4662
4.80139
5.03479
5.19366
5.29303
5.341
5.34118
5.29355
5.19455
5.03605
4.80304
4.46827
3.97995
3.23182
1.99251
0.19101
0.209472
2.31355
3.97644
5.06321
5.79994
6.31335
6.67298
6.91817
7.07152
7.14553
7.14579
7.0723
6.91947
6.67481
6.31573
5.80285
5.06657
3.98001
2.31657
0.209954
0.22252
2.51984
4.46431
5.79895
6.73115
7.39183
7.85874
8.17847
8.37885
8.47563
8.47596
8.37982
8.1801
7.86102
7.39476
6.73467
5.80292
4.46838
2.52314
0.223024
0.231992
2.66138
4.79882
6.31151
7.39091
8.16663
8.71953
9.10002
9.33913
9.45476
9.45513
9.34026
9.1019
8.72215
8.16995
7.39486
6.31589
4.80322
2.66485
0.232512
0.238906
2.7605
5.03168
6.67042
7.85701
8.71869
9.33715
9.76465
10.034
10.1644
10.1648
10.0352
9.76671
9.34001
8.7223
7.86126
6.67508
5.0363
2.76409
0.239437
0.243785
2.82834
5.19012
6.91503
8.17606
9.09845
9.76389
10.2254
10.5169
10.6581
10.6586
10.5182
10.2276
9.76692
9.10225
8.18051
6.91988
5.19488
2.83201
0.244323
0.246914
2.87093
5.28915
7.06792
8.37589
9.33694
10.0326
10.5162
10.822
10.9703
10.9708
10.8233
10.5185
10.0357
9.34085
8.38045
7.07288
5.294
2.87465
0.247457
0.248445
2.89151
5.33688
7.14158
8.47223
9.45207
10.1625
10.6569
10.9698
11.1216
11.1221
10.9712
10.6592
10.1657
9.45605
8.47686
7.14658
5.34177
2.89524
0.248991
0.248445
2.89151
5.33688
7.14158
8.47223
9.45207
10.1625
10.6569
10.9698
11.1216
11.1221
10.9712
10.6592
10.1657
9.45605
8.47686
7.14658
5.34177
2.89524
0.248991
0.246914
2.87093
5.28915
7.06792
8.37589
9.33694
10.0326
10.5162
10.822
10.9703
10.9708
10.8233
10.5185
10.0357
9.34085
8.38046
7.07288
5.294
2.87465
0.247457
0.243785
2.82834
5.19012
6.91503
8.17606
9.09845
9.76389
10.2254
10.5169
10.6581
10.6586
10.5182
10.2276
9.76692
9.10225
8.18051
6.91988
5.19488
2.83201
0.244323
0.238906
2.7605
5.03168
6.67042
7.85701
8.71869
9.33715
9.76465
10.034
10.1644
10.1648
10.0352
9.76671
9.34001
8.7223
7.86126
6.67508
5.0363
2.76409
0.239437
0.231992
2.66138
4.79882
6.31151
7.39091
8.16663
8.71953
9.10002
9.33913
9.45476
9.45514
9.34026
9.1019
8.72215
8.16995
7.39486
6.31589
4.80322
2.66485
0.232512
0.22252
2.51984
4.46431
5.79895
6.73115
7.39183
7.85874
8.17847
8.37885
8.47563
8.47596
8.37983
8.1801
7.86102
7.39476
6.73467
5.80292
4.46839
2.52314
0.223024
0.209472
2.31355
3.97644
5.06321
5.79993
6.31335
6.67298
6.91817
7.07152
7.14553
7.14579
7.0723
6.91947
6.67481
6.31573
5.80285
5.06657
3.98001
2.31657
0.209954
0.190563
1.98994
3.22905
3.97748
4.4662
4.80139
5.03479
5.19366
5.29303
5.341
5.34118
5.29355
5.19455
5.03605
4.80304
4.46827
3.97995
3.23182
1.99251
0.19101
0.159091
1.39174
1.99096
2.31527
2.52205
2.66396
2.76336
2.83143
2.87418
2.89487
2.89495
2.87441
2.83182
2.76394
2.66473
2.52304
2.31651
1.99247
1.39342
0.159468
0.0880147
0.159303
0.190875
0.209846
0.222937
0.232441
0.239379
0.244277
0.247419
0.248959
0.248965
0.247435
0.244305
0.239421
0.232498
0.223012
0.209943
0.191002
0.159463
0.0882351
)
;

boundaryField
{
    leftWall
    {
        type            compressible::alphatWallFunction;
        value           nonuniform List<scalar> 
20
(
0.0169507
0.0277097
0.0322479
0.0348625
0.0365994
0.0378165
0.0386771
0.0392681
0.0396393
0.0398186
0.0398186
0.0396393
0.0392681
0.0386771
0.0378165
0.0365994
0.0348625
0.0322479
0.0277097
0.0169507
)
;
    }
    rightWall
    {
        type            compressible::alphatWallFunction;
        value           nonuniform List<scalar> 
20
(
0.0199161
0.0331475
0.0387008
0.0418923
0.0440096
0.0454922
0.0465398
0.047259
0.0477107
0.0479288
0.0479288
0.0477107
0.047259
0.0465398
0.0454922
0.0440096
0.0418923
0.0387008
0.0331475
0.0199161
)
;
    }
    topWall
    {
        type            compressible::alphatWallFunction;
        value           nonuniform List<scalar> 
20
(
0.0199379
0.0331587
0.0387061
0.0418956
0.0440115
0.0454931
0.04654
0.0472587
0.04771
0.0479279
0.0479277
0.0477095
0.0472578
0.0465385
0.0454909
0.0440084
0.0418912
0.0386999
0.0331469
0.0199161
)
;
    }
    bottomWall
    {
        type            compressible::alphatWallFunction;
        value           nonuniform List<scalar> 
20
(
0.0199379
0.0331587
0.0387061
0.0418956
0.0440115
0.0454931
0.04654
0.0472587
0.04771
0.0479279
0.0479277
0.0477095
0.0472578
0.0465385
0.0454909
0.0440084
0.0418912
0.0386999
0.0331469
0.0199161
)
;
    }
    frontAndBackPlanes
    {
        type            empty;
    }
}


// ************************************************************************* //
