/*--------------------------------*- C++ -*----------------------------------*\
| =========                 |                                                 |
| \\      /  F ield         | OpenFOAM: The Open Source CFD Toolbox           |
|  \\    /   O peration     | Version:  2506                                  |
|   \\  /    A nd           | Website:  www.openfoam.com                      |
|    \\/     M anipulation  |                                                 |
\*---------------------------------------------------------------------------*/
FoamFile
{
    version     2.0;
    format      ascii;
    arch        "LSB;label=32;scalar=64";
    class       volScalarField;
    location    "1.9290251";
    object      k;
}
// * * * * * * * * * * * * * * * * * * * * * * * * * * * * * * * * * * * * * //

dimensions      [0 2 -2 0 0 0 0];

internalField   nonuniform List<scalar> 
400
(
0.00253558
0.00746419
0.0104176
0.0123642
0.0137579
0.0147827
0.0155314
0.0160572
0.0163923
0.0165555
0.0165553
0.0163919
0.0160565
0.0155303
0.0147811
0.0137557
0.0123615
0.010414
0.00745847
0.00252977
0.00746752
0.0198119
0.0258477
0.0300256
0.0331026
0.0353938
0.0370765
0.0382607
0.0390159
0.0393835
0.0393833
0.0390151
0.0382594
0.0370744
0.0353906
0.0330981
0.0300194
0.0258395
0.0198016
0.00745874
0.0104223
0.0258498
0.033087
0.0380385
0.0417255
0.0445066
0.0465708
0.0480347
0.0489732
0.0494316
0.0494314
0.0489725
0.0480334
0.0465686
0.0445033
0.0417208
0.0380321
0.0330786
0.0258399
0.0104145
0.01237
0.0300299
0.0380408
0.0434266
0.0474381
0.050483
0.0527591
0.0543831
0.0554289
0.0559411
0.0559408
0.0554281
0.0543817
0.0527568
0.0504796
0.0474333
0.0434201
0.0380324
0.0300201
0.0123621
0.0137648
0.0331088
0.0417298
0.0474402
0.0516747
0.054893
0.057307
0.0590359
0.0601526
0.0607005
0.0607003
0.0601518
0.0590344
0.0573047
0.0548895
0.0516697
0.0474336
0.0417213
0.033099
0.0137566
0.0147906
0.0354017
0.0445126
0.0504869
0.0548948
0.0582413
0.060754
0.0625568
0.0637232
0.0642963
0.064296
0.0637224
0.0625553
0.0607516
0.0582377
0.0548897
0.0504801
0.0445041
0.0353916
0.014782
0.0155401
0.0370857
0.0465782
0.0527643
0.0573102
0.0607554
0.0633418
0.0651985
0.0664008
0.0669918
0.0669915
0.0663999
0.0651969
0.0633393
0.0607517
0.0573051
0.0527575
0.0465695
0.0370755
0.0155312
0.0160665
0.0382709
0.0480432
0.0543894
0.0590401
0.0625593
0.0651996
0.0670951
0.0683228
0.0689265
0.0689262
0.0683219
0.0670934
0.065197
0.0625555
0.0590349
0.0543824
0.0480343
0.0382605
0.0160574
0.0164021
0.0390267
0.0489824
0.0554359
0.0601576
0.0637265
0.0664027
0.0683236
0.0695678
0.0701797
0.0701794
0.0695669
0.0683219
0.0664
0.0637227
0.0601523
0.0554289
0.0489735
0.0390162
0.0163928
0.0165655
0.0393949
0.0494412
0.0559485
0.060706
0.0643001
0.0669942
0.0689278
0.0701802
0.0707961
0.0707958
0.0701792
0.0689261
0.0669916
0.0642962
0.0607007
0.0559415
0.0494323
0.0393843
0.0165561
0.0165655
0.0393949
0.0494412
0.0559485
0.060706
0.0643001
0.0669942
0.0689278
0.0701802
0.0707961
0.0707958
0.0701792
0.0689261
0.0669916
0.0642962
0.0607007
0.0559415
0.0494323
0.0393843
0.0165561
0.0164021
0.0390267
0.0489824
0.0554359
0.0601576
0.0637265
0.0664027
0.0683236
0.0695678
0.0701797
0.0701794
0.0695669
0.0683219
0.0664
0.0637227
0.0601523
0.0554289
0.0489735
0.0390162
0.0163928
0.0160665
0.0382709
0.0480432
0.0543894
0.0590401
0.0625593
0.0651996
0.0670951
0.0683228
0.0689265
0.0689262
0.0683219
0.0670934
0.065197
0.0625555
0.0590349
0.0543824
0.0480343
0.0382605
0.0160574
0.0155401
0.0370857
0.0465782
0.0527643
0.0573102
0.0607554
0.0633418
0.0651985
0.0664008
0.0669918
0.0669915
0.0663999
0.0651969
0.0633393
0.0607517
0.0573051
0.0527575
0.0465695
0.0370755
0.0155312
0.0147906
0.0354017
0.0445126
0.0504869
0.0548948
0.0582413
0.060754
0.0625568
0.0637232
0.0642963
0.064296
0.0637224
0.0625553
0.0607516
0.0582377
0.0548897
0.0504801
0.0445041
0.0353916
0.014782
0.0137648
0.0331088
0.0417298
0.0474402
0.0516747
0.054893
0.057307
0.0590359
0.0601526
0.0607005
0.0607003
0.0601518
0.0590344
0.0573047
0.0548895
0.0516697
0.0474336
0.0417213
0.033099
0.0137566
0.01237
0.0300299
0.0380408
0.0434266
0.0474381
0.050483
0.0527591
0.0543831
0.0554289
0.0559411
0.0559408
0.0554281
0.0543817
0.0527568
0.0504796
0.0474333
0.0434201
0.0380324
0.0300201
0.0123621
0.0104223
0.0258498
0.033087
0.0380385
0.0417255
0.0445066
0.0465708
0.0480347
0.0489732
0.0494316
0.0494314
0.0489725
0.0480334
0.0465686
0.0445033
0.0417208
0.0380321
0.0330786
0.0258399
0.0104145
0.00746752
0.0198119
0.0258477
0.0300256
0.0331026
0.0353938
0.0370765
0.0382607
0.0390158
0.0393835
0.0393833
0.0390151
0.0382594
0.0370744
0.0353906
0.0330981
0.0300194
0.0258395
0.0198016
0.00745874
0.00253558
0.00746419
0.0104176
0.0123642
0.0137579
0.0147827
0.0155314
0.0160572
0.0163923
0.0165555
0.0165553
0.0163919
0.0160565
0.0155303
0.0147811
0.0137557
0.0123615
0.010414
0.00745847
0.00252977
)
;

boundaryField
{
    leftWall
    {
        type            kqRWallFunction;
        value           nonuniform List<scalar> 
20
(
0.00253558
0.00746752
0.0104223
0.01237
0.0137648
0.0147906
0.0155401
0.0160665
0.0164021
0.0165655
0.0165655
0.0164021
0.0160665
0.0155401
0.0147906
0.0137648
0.01237
0.0104223
0.00746752
0.00253558
)
;
    }
    rightWall
    {
        type            kqRWallFunction;
        value           nonuniform List<scalar> 
20
(
0.00252977
0.00745874
0.0104145
0.0123621
0.0137566
0.014782
0.0155312
0.0160574
0.0163928
0.0165561
0.0165561
0.0163928
0.0160574
0.0155312
0.014782
0.0137566
0.0123621
0.0104145
0.00745874
0.00252977
)
;
    }
    topWall
    {
        type            kqRWallFunction;
        value           nonuniform List<scalar> 
20
(
0.00253558
0.00746419
0.0104176
0.0123642
0.0137579
0.0147827
0.0155314
0.0160572
0.0163923
0.0165555
0.0165553
0.0163919
0.0160565
0.0155303
0.0147811
0.0137557
0.0123615
0.010414
0.00745847
0.00252977
)
;
    }
    bottomWall
    {
        type            kqRWallFunction;
        value           nonuniform List<scalar> 
20
(
0.00253558
0.00746419
0.0104176
0.0123642
0.0137579
0.0147827
0.0155314
0.0160572
0.0163923
0.0165555
0.0165553
0.0163919
0.0160565
0.0155303
0.0147811
0.0137557
0.0123615
0.010414
0.00745847
0.00252977
)
;
    }
    frontAndBackPlanes
    {
        type            empty;
    }
}


// ************************************************************************* //
