/*--------------------------------*- C++ -*----------------------------------*\
| =========                 |                                                 |
| \\      /  F ield         | OpenFOAM: The Open Source CFD Toolbox           |
|  \\    /   O peration     | Version:  2506                                  |
|   \\  /    A nd           | Website:  www.openfoam.com                      |
|    \\/     M anipulation  |                                                 |
\*---------------------------------------------------------------------------*/
FoamFile
{
    version     2.0;
    format      ascii;
    arch        "LSB;label=32;scalar=64";
    class       volScalarField;
    location    "1.9290251";
    object      nut;
}
// * * * * * * * * * * * * * * * * * * * * * * * * * * * * * * * * * * * * * //

dimensions      [0 2 -1 0 0 0 0];

internalField   nonuniform List<scalar> 
400
(
8.82233e-05
0.000159314
0.000190783
0.000209691
0.000222737
0.000232206
0.000239118
0.000243994
0.000247121
0.00024865
0.000248649
0.000247116
0.000243985
0.000239104
0.000232188
0.000222713
0.000209661
0.000190744
0.000159247
8.81153e-05
0.000159348
0.00139199
0.00199033
0.00231388
0.00252007
0.00266151
0.00276055
0.00282832
0.00287086
0.0028914
0.00289137
0.00287077
0.00282818
0.00276033
0.00266122
0.00251969
0.00231341
0.0019898
0.00139154
0.000159252
0.000190824
0.00199026
0.00322813
0.00397528
0.00446291
0.00479719
0.00502986
0.00518815
0.00528707
0.00533472
0.00533468
0.00528695
0.00518793
0.00502954
0.00479676
0.00446237
0.00397466
0.0032275
0.00198983
0.000190752
0.000209739
0.00231388
0.00397535
0.00506054
0.00579583
0.00630801
0.00666663
0.006911
0.00706372
0.00713727
0.00713722
0.00706357
0.00691074
0.00666625
0.00630751
0.00579522
0.00505986
0.0039747
0.00231347
0.000209671
0.000222793
0.00252016
0.00446311
0.00579597
0.00672652
0.00738573
0.00785142
0.00817015
0.00836975
0.00846596
0.0084659
0.00836958
0.00816986
0.007851
0.00738519
0.00672586
0.00579526
0.00446245
0.00251976
0.000222724
0.00023227
0.00266169
0.00479753
0.00630833
0.00738591
0.00816001
0.00871154
0.0090909
0.00932911
0.00944408
0.00944402
0.00932892
0.00909058
0.00871109
0.00815944
0.00738522
0.00630758
0.00479685
0.00266129
0.000232199
0.000239188
0.00276081
0.00503034
0.0066671
0.00785177
0.00871172
0.0093287
0.00975497
0.0100233
0.010153
0.010153
0.0100231
0.00975463
0.00932822
0.00871111
0.00785105
0.00666633
0.00502964
0.00276041
0.000239116
0.00024407
0.00282866
0.00518875
0.00691162
0.00817066
0.00909124
0.00975513
0.0102154
0.0105058
0.0106463
0.0106462
0.0105056
0.010215
0.00975463
0.00909061
0.00816991
0.00691082
0.00518803
0.00282825
0.000243996
0.000247201
0.00287125
0.00528776
0.00706445
0.00837038
0.00932958
0.0100236
0.0105059
0.0108106
0.0109582
0.0109581
0.0108104
0.0105055
0.0100231
0.00932893
0.00836962
0.00706363
0.00528702
0.00287083
0.000247126
0.000248733
0.00289182
0.00533547
0.00713808
0.00846668
0.00944465
0.0101534
0.0106465
0.0109583
0.0111093
0.0111092
0.0109581
0.0106461
0.0101529
0.00944399
0.0084659
0.00713725
0.00533473
0.0028914
0.000248657
0.000248733
0.00289182
0.00533547
0.00713808
0.00846668
0.00944465
0.0101534
0.0106465
0.0109583
0.0111093
0.0111092
0.0109581
0.0106461
0.0101529
0.00944399
0.0084659
0.00713725
0.00533473
0.0028914
0.000248657
0.000247201
0.00287125
0.00528776
0.00706445
0.00837038
0.00932958
0.0100236
0.0105059
0.0108106
0.0109582
0.0109581
0.0108104
0.0105055
0.0100231
0.00932893
0.00836962
0.00706363
0.00528702
0.00287083
0.000247126
0.00024407
0.00282866
0.00518875
0.00691162
0.00817066
0.00909124
0.00975513
0.0102154
0.0105058
0.0106463
0.0106462
0.0105056
0.010215
0.00975463
0.00909061
0.00816991
0.00691082
0.00518803
0.00282825
0.000243996
0.000239188
0.00276081
0.00503034
0.0066671
0.00785177
0.00871172
0.0093287
0.00975497
0.0100233
0.010153
0.010153
0.0100231
0.00975463
0.00932822
0.00871111
0.00785105
0.00666633
0.00502964
0.00276041
0.000239116
0.00023227
0.00266169
0.00479753
0.00630833
0.00738591
0.00816001
0.00871154
0.0090909
0.00932911
0.00944408
0.00944402
0.00932893
0.00909059
0.00871109
0.00815944
0.00738522
0.00630758
0.00479685
0.00266129
0.000232199
0.000222793
0.00252016
0.00446311
0.00579597
0.00672652
0.00738573
0.00785142
0.00817015
0.00836975
0.00846596
0.0084659
0.00836958
0.00816986
0.007851
0.00738519
0.00672587
0.00579526
0.00446245
0.00251977
0.000222724
0.000209739
0.00231388
0.00397535
0.00506054
0.00579583
0.00630801
0.00666663
0.006911
0.00706372
0.00713727
0.00713722
0.00706357
0.00691074
0.00666625
0.00630752
0.00579522
0.00505986
0.0039747
0.00231347
0.000209671
0.000190824
0.00199026
0.00322813
0.00397528
0.00446291
0.00479719
0.00502986
0.00518815
0.00528707
0.00533472
0.00533468
0.00528695
0.00518793
0.00502954
0.00479676
0.00446237
0.00397466
0.0032275
0.00198983
0.000190752
0.000159348
0.00139199
0.00199033
0.00231388
0.00252007
0.00266151
0.00276055
0.00282832
0.00287086
0.0028914
0.00289137
0.00287077
0.00282818
0.00276033
0.00266122
0.00251969
0.00231341
0.0019898
0.00139154
0.000159252
8.82233e-05
0.000159314
0.000190783
0.000209691
0.000222737
0.000232206
0.000239118
0.000243994
0.000247121
0.00024865
0.000248649
0.000247116
0.000243985
0.000239104
0.000232188
0.000222713
0.000209661
0.000190744
0.000159247
8.81153e-05
)
;

boundaryField
{
    leftWall
    {
        type            nutkWallFunction;
        blending        stepwise;
        value           nonuniform List<scalar> 
20
(
1.48004e-05
2.41946e-05
2.81571e-05
3.044e-05
3.19566e-05
3.30193e-05
3.37707e-05
3.42867e-05
3.46108e-05
3.47674e-05
3.47674e-05
3.46108e-05
3.42867e-05
3.37707e-05
3.30193e-05
3.19566e-05
3.044e-05
2.81571e-05
2.41946e-05
1.48004e-05
)
;
    }
    rightWall
    {
        type            nutkWallFunction;
        blending        stepwise;
        value           nonuniform List<scalar> 
20
(
1.69057e-05
2.81371e-05
3.2851e-05
3.55601e-05
3.73574e-05
3.86158e-05
3.95051e-05
4.01156e-05
4.0499e-05
4.06841e-05
4.06841e-05
4.0499e-05
4.01156e-05
3.95051e-05
3.86158e-05
3.73574e-05
3.55601e-05
3.2851e-05
2.81371e-05
1.69057e-05
)
;
    }
    topWall
    {
        type            nutkWallFunction;
        blending        stepwise;
        value           nonuniform List<scalar> 
20
(
1.69242e-05
2.81466e-05
3.28555e-05
3.55629e-05
3.7359e-05
3.86166e-05
3.95053e-05
4.01153e-05
4.04984e-05
4.06834e-05
4.06833e-05
4.0498e-05
4.01145e-05
3.9504e-05
3.86148e-05
3.73564e-05
3.55591e-05
3.28502e-05
2.81366e-05
1.69057e-05
)
;
    }
    bottomWall
    {
        type            nutkWallFunction;
        blending        stepwise;
        value           nonuniform List<scalar> 
20
(
1.69242e-05
2.81466e-05
3.28555e-05
3.55629e-05
3.7359e-05
3.86166e-05
3.95053e-05
4.01153e-05
4.04984e-05
4.06834e-05
4.06832e-05
4.0498e-05
4.01145e-05
3.9504e-05
3.86148e-05
3.73564e-05
3.55591e-05
3.28502e-05
2.81366e-05
1.69057e-05
)
;
    }
    frontAndBackPlanes
    {
        type            empty;
    }
}


// ************************************************************************* //
