/*--------------------------------*- C++ -*----------------------------------*\
| =========                 |                                                 |
| \\      /  F ield         | OpenFOAM: The Open Source CFD Toolbox           |
|  \\    /   O peration     | Version:  2506                                  |
|   \\  /    A nd           | Website:  www.openfoam.com                      |
|    \\/     M anipulation  |                                                 |
\*---------------------------------------------------------------------------*/
FoamFile
{
    version     2.0;
    format      ascii;
    arch        "LSB;label=32;scalar=64";
    class       surfaceScalarField;
    location    "1.9290251";
    object      phi;
}
// * * * * * * * * * * * * * * * * * * * * * * * * * * * * * * * * * * * * * //

dimensions      [1 0 -1 0 0 0 0];

oriented        oriented;

internalField   nonuniform List<scalar> 
760
(
-8.71453e-06
-1.09513e-05
-2.93954e-06
-5.95769e-06
-4.76685e-07
-4.40601e-06
9.43197e-07
-3.92451e-06
1.78904e-06
-3.425e-06
2.29569e-06
-2.97726e-06
2.59836e-06
-2.58904e-06
2.77121e-06
-2.24982e-06
2.856e-06
-1.95389e-06
2.87805e-06
-1.69764e-06
2.85379e-06
-1.47799e-06
2.79435e-06
-1.29231e-06
2.70728e-06
-1.13858e-06
2.59773e-06
-1.01581e-06
2.46911e-06
-9.24932e-07
2.32247e-06
-8.67893e-07
2.16521e-06
-8.46468e-07
2.09142e-06
-9.18689e-07
2.47201e-06
-1.45599e-06
-2.48112e-06
-2.28624e-06
-7.32927e-06
-1.53902e-06
-5.82376e-06
-4.68704e-07
-4.65359e-06
3.02528e-07
-3.93371e-06
9.02637e-07
-3.32729e-06
1.36733e-06
-2.81116e-06
1.72009e-06
-2.37937e-06
1.98363e-06
-2.0188e-06
2.17552e-06
-1.71684e-06
2.309e-06
-1.46409e-06
2.39447e-06
-1.25356e-06
2.4405e-06
-1.08006e-06
2.45441e-06
-9.4004e-07
2.44289e-06
-8.31872e-07
2.41221e-06
-7.56328e-07
2.36968e-06
-7.16836e-07
2.33487e-06
-7.28082e-07
2.34055e-06
-8.62063e-07
2.20104e-06
-1.27305e-06
-1.66652e-06
-6.28882e-07
-6.04398e-06
-6.35408e-07
-5.00692e-06
-3.25333e-07
-4.18594e-06
3.94727e-08
-3.56013e-06
4.18335e-07
-3.01546e-06
7.81942e-07
-2.5385e-06
1.11044e-06
-2.13052e-06
1.39492e-06
-1.78706e-06
1.63323e-06
-1.50013e-06
1.82669e-06
-1.26198e-06
1.9785e-06
-1.06605e-06
2.09293e-06
-9.07172e-07
2.17481e-06
-7.81687e-07
2.22909e-06
-6.878e-07
2.26044e-06
-6.25979e-07
2.27356e-06
-5.99916e-07
2.27167e-06
-6.23262e-07
2.2262e-06
-7.3694e-07
1.99871e-06
-9.86672e-07
-1.1958e-06
-7.09767e-07
-5.12902e-06
-6.50161e-07
-4.30525e-06
-4.71031e-07
-3.62302e-06
-2.27297e-07
-3.08804e-06
6.08628e-08
-2.62394e-06
3.69753e-07
-2.21249e-06
6.76912e-07
-1.85396e-06
9.66e-07
-1.54762e-06
1.22713e-06
-1.28966e-06
1.45529e-06
-1.07519e-06
1.64889e-06
-8.99416e-07
1.80868e-06
-7.58194e-07
1.93681e-06
-6.48416e-07
2.0361e-06
-5.6838e-07
2.10917e-06
-5.18142e-07
2.1574e-06
-5.00242e-07
2.17663e-06
-5.23084e-07
2.14053e-06
-6.06039e-07
1.98839e-06
-7.61982e-07
-8.79607e-07
-8.54161e-07
-4.24084e-06
-8.29215e-07
-3.60239e-06
-6.92088e-07
-3.04473e-06
-4.87063e-07
-2.59563e-06
-2.33842e-07
-2.2078e-06
4.95825e-08
-1.86406e-06
3.44501e-07
-1.56203e-06
6.34831e-07
-1.30131e-06
9.08717e-07
-1.08004e-06
1.1584e-06
-8.9535e-07
1.37949e-06
-7.4403e-07
1.57022e-06
-6.2308e-07
1.73053e-06
-5.30084e-07
1.86132e-06
-4.63542e-07
1.96342e-06
-4.23101e-07
2.03636e-06
-4.09902e-07
2.07502e-06
-4.27928e-07
2.06205e-06
-4.84928e-07
1.96595e-06
-5.81275e-07
-6.44299e-07
-9.71927e-07
-3.36589e-06
-9.84412e-07
-2.88483e-06
-8.82562e-07
-2.45033e-06
-7.03518e-07
-2.09113e-06
-4.70507e-07
-1.77974e-06
-2.01818e-07
-1.50385e-06
8.53501e-08
-1.26056e-06
3.75726e-07
-1.04929e-06
6.5706e-07
-8.68966e-07
9.20369e-07
-7.179e-07
1.15967e-06
-5.94038e-07
1.37144e-06
-4.95312e-07
1.554e-06
-4.19937e-07
1.7067e-06
-3.66644e-07
1.82913e-06
-3.34792e-07
1.91996e-06
-3.2445e-07
1.97488e-06
-3.36765e-07
1.98314e-06
-3.73631e-07
1.92792e-06
-4.31087e-07
-4.63827e-07
-1.07467e-06
-2.50731e-06
-1.10611e-06
-2.16361e-06
-1.02867e-06
-1.84486e-06
-8.69487e-07
-1.57672e-06
-6.51429e-07
-1.34284e-06
-3.93323e-07
-1.13536e-06
-1.12044e-07
-9.52004e-07
1.77512e-07
-7.92202e-07
4.62975e-07
-6.55307e-07
7.3474e-07
-5.40307e-07
9.85845e-07
-4.45927e-07
1.21163e-06
-3.70809e-07
1.40922e-06
-3.13695e-07
1.57693e-06
-2.73576e-07
1.71355e-06
-2.49719e-07
1.81755e-06
-2.41619e-07
1.88587e-06
-2.48998e-07
1.91247e-06
-2.71315e-07
1.88906e-06
-3.04239e-07
-3.20796e-07
-1.1544e-06
-1.66271e-06
-1.19616e-06
-1.44207e-06
-1.13398e-06
-1.23301e-06
-9.88667e-07
-1.05512e-06
-7.81521e-07
-8.99165e-07
-5.31245e-07
-7.60588e-07
-2.54571e-07
-6.3794e-07
3.37515e-08
-5.30819e-07
3.21282e-07
-4.38841e-07
5.98054e-07
-3.61434e-07
8.56507e-07
-2.97857e-07
1.09124e-06
-2.47287e-07
1.29861e-06
-2.08924e-07
1.47627e-06
-1.82055e-07
1.62258e-06
-1.66059e-07
1.73612e-06
-1.60324e-07
1.81501e-06
-1.64164e-07
1.85622e-06
-1.76487e-07
1.85598e-06
-1.94077e-07
-2.01974e-07
-1.20738e-06
-8.28525e-07
-1.25484e-06
-7.20849e-07
-1.20181e-06
-6.17399e-07
-1.06534e-06
-5.28765e-07
-8.65412e-07
-4.50798e-07
-6.2043e-07
-3.81433e-07
-3.47011e-07
-3.19986e-07
-5.98442e-08
-2.66257e-07
2.28577e-07
-2.20065e-07
5.08076e-07
-1.81151e-07
7.70743e-07
-1.49174e-07
1.01074e-06
-1.23746e-07
1.22397e-06
-1.04475e-07
1.40768e-06
-9.0992e-08
1.56009e-06
-8.2944e-08
1.67993e-06
-7.99423e-08
1.76613e-06
-8.15048e-08
1.81741e-06
-8.69048e-08
1.83212e-06
-9.44836e-08
-9.7602e-08
-1.23366e-06
2.74102e-12
-1.2836e-06
2.62899e-12
-1.23491e-06
2.51137e-12
-1.10277e-06
2.47017e-12
-9.06468e-07
2.48973e-12
-6.64179e-07
2.55941e-12
-3.92462e-07
2.66127e-12
-1.05981e-07
2.79259e-12
1.82739e-07
2.936e-12
4.63421e-07
3.0459e-12
7.27995e-07
3.10823e-12
9.70415e-07
3.0775e-12
1.18638e-06
2.96602e-12
1.37298e-06
2.82059e-12
1.52834e-06
2.67382e-12
1.65132e-06
2.53329e-12
1.74126e-06
2.4139e-12
1.79764e-06
2.31931e-12
1.81966e-06
2.27019e-12
2.14771e-12
-1.23366e-06
8.2853e-07
-1.2836e-06
7.20855e-07
-1.23491e-06
6.17404e-07
-1.10277e-06
5.2877e-07
-9.06468e-07
4.50803e-07
-6.64179e-07
3.81438e-07
-3.92462e-07
3.19992e-07
-1.05981e-07
2.66263e-07
1.82738e-07
2.20071e-07
4.63421e-07
1.81157e-07
7.27995e-07
1.4918e-07
9.70415e-07
1.23752e-07
1.18638e-06
1.04481e-07
1.37298e-06
9.09976e-08
1.52834e-06
8.29493e-08
1.65132e-06
7.99473e-08
1.74126e-06
8.15096e-08
1.79764e-06
8.69093e-08
1.81966e-06
9.44881e-08
9.76062e-08
-1.20737e-06
1.66271e-06
-1.25484e-06
1.44207e-06
-1.20181e-06
1.23301e-06
-1.06534e-06
1.05512e-06
-8.65412e-07
8.9917e-07
-6.2043e-07
7.60593e-07
-3.47011e-07
6.37945e-07
-5.98444e-08
5.30824e-07
2.28577e-07
4.38847e-07
5.08075e-07
3.6144e-07
7.70742e-07
2.97863e-07
1.01074e-06
2.47293e-07
1.22396e-06
2.0893e-07
1.40768e-06
1.82061e-07
1.56009e-06
1.66064e-07
1.67993e-06
1.60329e-07
1.76613e-06
1.64168e-07
1.81741e-06
1.76491e-07
1.83212e-06
1.94082e-07
2.01978e-07
-1.1544e-06
2.50731e-06
-1.19616e-06
2.16361e-06
-1.13398e-06
1.84486e-06
-9.88667e-07
1.57672e-06
-7.81521e-07
1.34284e-06
-5.31245e-07
1.13537e-06
-2.54571e-07
9.52009e-07
3.37513e-08
7.92207e-07
3.21282e-07
6.55312e-07
5.98053e-07
5.40313e-07
8.56507e-07
4.45933e-07
1.09124e-06
3.70814e-07
1.29861e-06
3.13701e-07
1.47626e-06
2.73581e-07
1.62258e-06
2.49724e-07
1.73612e-06
2.41623e-07
1.81501e-06
2.49002e-07
1.85622e-06
2.71319e-07
1.85598e-06
3.04243e-07
3.208e-07
-1.07466e-06
3.3659e-06
-1.10611e-06
2.88484e-06
-1.02867e-06
2.45033e-06
-8.69487e-07
2.09114e-06
-6.51428e-07
1.77975e-06
-3.93323e-07
1.50386e-06
-1.12043e-07
1.26057e-06
1.77512e-07
1.04929e-06
4.62975e-07
8.68971e-07
7.34739e-07
7.17906e-07
9.85844e-07
5.94043e-07
1.21163e-06
4.95317e-07
1.40922e-06
4.19942e-07
1.57693e-06
3.66648e-07
1.71355e-06
3.34797e-07
1.81754e-06
3.24454e-07
1.88587e-06
3.36769e-07
1.91247e-06
3.73634e-07
1.88906e-06
4.3109e-07
4.6383e-07
-9.71926e-07
4.24085e-06
-9.84411e-07
3.60239e-06
-8.8256e-07
3.04473e-06
-7.03517e-07
2.59563e-06
-4.70506e-07
2.20781e-06
-2.01817e-07
1.86406e-06
8.53503e-08
1.56203e-06
3.75726e-07
1.30132e-06
6.5706e-07
1.08005e-06
9.20369e-07
8.95355e-07
1.15967e-06
7.44035e-07
1.37144e-06
6.23084e-07
1.554e-06
5.30088e-07
1.7067e-06
4.63546e-07
1.82913e-06
4.23105e-07
1.91995e-06
4.09906e-07
1.97487e-06
4.27931e-07
1.98314e-06
4.84931e-07
1.92791e-06
5.81278e-07
6.44301e-07
-8.5416e-07
5.12902e-06
-8.29214e-07
4.30525e-06
-6.92086e-07
3.62302e-06
-4.87062e-07
3.08804e-06
-2.33841e-07
2.62395e-06
4.95832e-08
2.21249e-06
3.44501e-07
1.85396e-06
6.34831e-07
1.54762e-06
9.08717e-07
1.28966e-06
1.1584e-06
1.07519e-06
1.37949e-06
8.99421e-07
1.57022e-06
7.58199e-07
1.73053e-06
6.4842e-07
1.86132e-06
5.68384e-07
1.96342e-06
5.18146e-07
2.03636e-06
5.00245e-07
2.07502e-06
5.23087e-07
2.06204e-06
6.06041e-07
1.96595e-06
7.61984e-07
8.79608e-07
-7.09766e-07
6.04398e-06
-6.50159e-07
5.00692e-06
-4.71029e-07
4.18595e-06
-2.27296e-07
3.56013e-06
6.08641e-08
3.01546e-06
3.69754e-07
2.5385e-06
6.76913e-07
2.13052e-06
9.66e-07
1.78706e-06
1.22713e-06
1.50014e-06
1.45529e-06
1.26198e-06
1.64889e-06
1.06606e-06
1.80868e-06
9.07176e-07
1.93681e-06
7.81691e-07
2.0361e-06
6.87804e-07
2.10916e-06
6.25982e-07
2.15739e-06
5.99919e-07
2.17663e-06
6.23264e-07
2.14053e-06
7.36942e-07
1.98839e-06
9.86674e-07
1.1958e-06
-6.2888e-07
7.32927e-06
-6.35406e-07
5.82376e-06
-3.25331e-07
4.65359e-06
3.94745e-08
3.93371e-06
4.18337e-07
3.32729e-06
7.81943e-07
2.81117e-06
1.11044e-06
2.37938e-06
1.39492e-06
2.0188e-06
1.63323e-06
1.71684e-06
1.82669e-06
1.46409e-06
1.9785e-06
1.25356e-06
2.09293e-06
1.08006e-06
2.17481e-06
9.40043e-07
2.22909e-06
8.31875e-07
2.26044e-06
7.5633e-07
2.27356e-06
7.16838e-07
2.27166e-06
7.28084e-07
2.2262e-06
8.62064e-07
1.9987e-06
1.27305e-06
1.66652e-06
-2.28624e-06
1.09513e-05
-1.53902e-06
5.95769e-06
-4.68702e-07
4.40601e-06
3.0253e-07
3.92451e-06
9.02639e-07
3.42501e-06
1.36733e-06
2.97726e-06
1.72009e-06
2.58905e-06
1.98363e-06
2.24982e-06
2.17552e-06
1.95389e-06
2.309e-06
1.69765e-06
2.39447e-06
1.478e-06
2.4405e-06
1.29231e-06
2.45441e-06
1.13858e-06
2.44289e-06
1.01581e-06
2.41221e-06
9.24934e-07
2.36968e-06
8.67895e-07
2.33487e-06
8.46469e-07
2.34055e-06
9.1869e-07
2.20104e-06
1.45599e-06
2.48112e-06
-8.71453e-06
-2.93954e-06
-4.76684e-07
9.43199e-07
1.78904e-06
2.29569e-06
2.59836e-06
2.77122e-06
2.856e-06
2.87805e-06
2.85379e-06
2.79435e-06
2.70728e-06
2.59773e-06
2.4691e-06
2.32246e-06
2.1652e-06
2.09142e-06
2.472e-06
)
;

boundaryField
{
    leftWall
    {
        type            calculated;
        value           nonuniform List<scalar> 
20
(
1.01747e-05
-4.15574e-07
1.69379e-07
5.68345e-07
7.10955e-07
8.25497e-07
9.34837e-07
1.02275e-06
1.08287e-06
1.11333e-06
1.11333e-06
1.08287e-06
1.02275e-06
9.34837e-07
8.25496e-07
7.10954e-07
5.68344e-07
1.69378e-07
-4.15574e-07
1.01747e-05
)
;
    }
    rightWall
    {
        type            calculated;
        value           nonuniform List<scalar> 
20
(
2.47913e-06
1.40885e-06
1.56369e-06
1.7192e-06
1.78752e-06
1.81279e-06
1.81834e-06
1.81482e-06
1.80902e-06
1.80516e-06
1.80516e-06
1.80902e-06
1.81481e-06
1.81834e-06
1.81279e-06
1.78752e-06
1.7192e-06
1.56369e-06
1.40885e-06
2.47913e-06
)
;
    }
    topWall
    {
        type            calculated;
        value           nonuniform List<scalar> 
20
(
1.04659e-05
1.17152e-06
2.81368e-06
3.27432e-06
3.25895e-06
3.06595e-06
2.80176e-06
2.51747e-06
2.24072e-06
1.98499e-06
1.75646e-06
1.55785e-06
1.39042e-06
1.25513e-06
1.154e-06
1.09059e-06
1.05949e-06
1.03101e-06
1.09811e-06
2.47913e-06
)
;
    }
    bottomWall
    {
        type            calculated;
        value           nonuniform List<scalar> 
20
(
1.04659e-05
1.17152e-06
2.81368e-06
3.27433e-06
3.25895e-06
3.06596e-06
2.80177e-06
2.51748e-06
2.24072e-06
1.98499e-06
1.75646e-06
1.55785e-06
1.39042e-06
1.25513e-06
1.154e-06
1.09059e-06
1.05949e-06
1.03101e-06
1.09811e-06
2.47913e-06
)
;
    }
    frontAndBackPlanes
    {
        type            empty;
    }
}


// ************************************************************************* //
