/*--------------------------------*- C++ -*----------------------------------*\
| =========                 |                                                 |
| \\      /  F ield         | OpenFOAM: The Open Source CFD Toolbox           |
|  \\    /   O peration     | Version:  2506                                  |
|   \\  /    A nd           | Website:  www.openfoam.com                      |
|    \\/     M anipulation  |                                                 |
\*---------------------------------------------------------------------------*/
FoamFile
{
    version     2.0;
    format      ascii;
    arch        "LSB;label=32;scalar=64";
    class       volScalarField;
    location    "1.9290251";
    object      rho;
}
// * * * * * * * * * * * * * * * * * * * * * * * * * * * * * * * * * * * * * //

dimensions      [1 -3 0 0 0 0 0];

internalField   nonuniform List<scalar> 
400
(
997.635
999.935
1000.48
1000.74
1000.9
1001.01
1001.09
1001.16
1001.21
1001.24
1001.27
1001.29
1001.31
1001.32
1001.33
1001.34
1001.35
1001.35
1001.36
1001.36
998.389
999.825
1000.32
1000.6
1000.79
1000.92
1001.02
1001.1
1001.16
1001.2
1001.24
1001.27
1001.29
1001.31
1001.32
1001.33
1001.34
1001.34
1001.35
1001.36
998.636
999.842
1000.28
1000.55
1000.74
1000.88
1000.98
1001.06
1001.13
1001.18
1001.22
1001.25
1001.27
1001.29
1001.31
1001.32
1001.33
1001.34
1001.35
1001.35
998.73
999.861
1000.27
1000.53
1000.71
1000.85
1000.95
1001.04
1001.1
1001.16
1001.2
1001.24
1001.26
1001.28
1001.3
1001.32
1001.33
1001.33
1001.34
1001.35
998.776
999.873
1000.27
1000.51
1000.69
1000.83
1000.93
1001.02
1001.09
1001.14
1001.19
1001.22
1001.25
1001.28
1001.3
1001.31
1001.32
1001.33
1001.34
1001.35
998.804
999.881
1000.27
1000.5
1000.68
1000.81
1000.92
1001
1001.07
1001.13
1001.18
1001.21
1001.25
1001.27
1001.29
1001.3
1001.32
1001.33
1001.34
1001.34
998.822
999.886
1000.27
1000.5
1000.67
1000.8
1000.91
1000.99
1001.06
1001.12
1001.17
1001.21
1001.24
1001.26
1001.28
1001.3
1001.31
1001.32
1001.33
1001.34
998.833
999.889
1000.26
1000.49
1000.66
1000.79
1000.9
1000.98
1001.06
1001.11
1001.16
1001.2
1001.23
1001.26
1001.28
1001.3
1001.31
1001.32
1001.33
1001.34
998.84
999.891
1000.26
1000.49
1000.66
1000.79
1000.89
1000.98
1001.05
1001.11
1001.16
1001.2
1001.23
1001.26
1001.28
1001.3
1001.31
1001.32
1001.33
1001.34
998.843
999.891
1000.26
1000.49
1000.66
1000.79
1000.89
1000.98
1001.05
1001.11
1001.16
1001.2
1001.23
1001.26
1001.28
1001.29
1001.31
1001.32
1001.33
1001.34
998.843
999.891
1000.26
1000.49
1000.66
1000.79
1000.89
1000.98
1001.05
1001.11
1001.16
1001.2
1001.23
1001.26
1001.28
1001.29
1001.31
1001.32
1001.33
1001.34
998.84
999.891
1000.26
1000.49
1000.66
1000.79
1000.89
1000.98
1001.05
1001.11
1001.16
1001.2
1001.23
1001.26
1001.28
1001.3
1001.31
1001.32
1001.33
1001.34
998.833
999.889
1000.26
1000.49
1000.66
1000.79
1000.9
1000.98
1001.06
1001.11
1001.16
1001.2
1001.23
1001.26
1001.28
1001.3
1001.31
1001.32
1001.33
1001.34
998.822
999.886
1000.27
1000.5
1000.67
1000.8
1000.91
1000.99
1001.06
1001.12
1001.17
1001.21
1001.24
1001.26
1001.28
1001.3
1001.31
1001.32
1001.33
1001.34
998.804
999.881
1000.27
1000.5
1000.68
1000.81
1000.92
1001
1001.07
1001.13
1001.18
1001.21
1001.25
1001.27
1001.29
1001.3
1001.32
1001.33
1001.34
1001.34
998.776
999.873
1000.27
1000.51
1000.69
1000.83
1000.93
1001.02
1001.09
1001.14
1001.19
1001.22
1001.25
1001.28
1001.3
1001.31
1001.32
1001.33
1001.34
1001.35
998.73
999.861
1000.27
1000.53
1000.71
1000.85
1000.95
1001.04
1001.1
1001.16
1001.2
1001.24
1001.26
1001.28
1001.3
1001.32
1001.33
1001.33
1001.34
1001.35
998.636
999.842
1000.28
1000.55
1000.74
1000.88
1000.98
1001.06
1001.13
1001.18
1001.22
1001.25
1001.27
1001.29
1001.31
1001.32
1001.33
1001.34
1001.35
1001.35
998.389
999.825
1000.32
1000.6
1000.79
1000.92
1001.02
1001.1
1001.16
1001.2
1001.24
1001.27
1001.29
1001.31
1001.32
1001.33
1001.34
1001.34
1001.35
1001.36
997.635
999.935
1000.48
1000.74
1000.9
1001.01
1001.09
1001.16
1001.21
1001.24
1001.27
1001.29
1001.31
1001.32
1001.33
1001.34
1001.35
1001.35
1001.36
1001.36
)
;

boundaryField
{
    leftWall
    {
        type            calculated;
        value           uniform 973.493;
    }
    rightWall
    {
        type            calculated;
        value           uniform 1001.36;
    }
    topWall
    {
        type            calculated;
        value           uniform 1001.36;
    }
    bottomWall
    {
        type            calculated;
        value           uniform 1001.36;
    }
    frontAndBackPlanes
    {
        type            empty;
    }
}


// ************************************************************************* //
