/*--------------------------------*- C++ -*----------------------------------*\
| =========                 |                                                 |
| \\      /  F ield         | OpenFOAM: The Open Source CFD Toolbox           |
|  \\    /   O peration     | Version:  2506                                  |
|   \\  /    A nd           | Website:  www.openfoam.com                      |
|    \\/     M anipulation  |                                                 |
\*---------------------------------------------------------------------------*/
FoamFile
{
    version     2.0;
    format      ascii;
    arch        "LSB;label=32;scalar=64";
    class       volVectorField;
    location    "1.9290251";
    object      U;
}
// * * * * * * * * * * * * * * * * * * * * * * * * * * * * * * * * * * * * * //

dimensions      [0 1 -1 0 0 0 0];

internalField   nonuniform List<vector> 
400
(
(-0.000226205 -0.00025007 0)
(-1.07374e-05 -7.79206e-05 0)
(-1.18098e-05 -5.96415e-05 0)
(2.54255e-06 -5.55424e-05 0)
(1.14578e-05 -5.01557e-05 0)
(1.66854e-05 -4.4558e-05 0)
(1.97873e-05 -3.92887e-05 0)
(2.16186e-05 -3.44733e-05 0)
(2.26062e-05 -3.01701e-05 0)
(2.30034e-05 -2.63954e-05 0)
(2.29729e-05 -2.31376e-05 0)
(2.26227e-05 -2.03751e-05 0)
(2.20257e-05 -1.8088e-05 0)
(2.12304e-05 -1.62684e-05 0)
(2.02751e-05 -1.49346e-05 0)
(1.92128e-05 -1.41191e-05 0)
(1.80273e-05 -1.38215e-05 0)
(1.64142e-05 -1.46934e-05 0)
(1.48719e-05 -2.1918e-05 0)
(4.41456e-05 -4.46518e-05 0)
(-3.65183e-05 -3.7637e-05 0)
(-1.18305e-05 -4.45613e-05 0)
(-7.36168e-06 -3.77818e-05 0)
(-4.75356e-07 -3.29725e-05 0)
(5.10038e-06 -2.81713e-05 0)
(9.31861e-06 -2.39661e-05 0)
(1.2523e-05 -2.04276e-05 0)
(1.49467e-05 -1.74518e-05 0)
(1.6739e-05 -1.49379e-05 0)
(1.80172e-05 -1.28148e-05 0)
(1.88741e-05 -1.10305e-05 0)
(1.93846e-05 -9.54663e-06 0)
(1.96109e-05 -8.33682e-06 0)
(1.96073e-05 -7.38867e-06 0)
(1.94291e-05 -6.70847e-06 0)
(1.91462e-05 -6.3233e-06 0)
(1.87905e-05 -6.34738e-06 0)
(1.82111e-05 -7.35836e-06 0)
(1.80925e-05 -1.07542e-05 0)
(2.94202e-05 -1.34884e-05 0)
(-1.12404e-05 -5.06025e-05 0)
(-5.23825e-06 -4.24841e-05 0)
(-3.98197e-06 -3.50686e-05 0)
(-1.1574e-06 -2.96764e-05 0)
(1.8755e-06 -2.50895e-05 0)
(4.87032e-06 -2.11317e-05 0)
(7.64701e-06 -1.77783e-05 0)
(1.0101e-05 -1.49684e-05 0)
(1.21886e-05 -1.26235e-05 0)
(1.39082e-05 -1.06739e-05 0)
(1.52797e-05 -9.06386e-06 0)
(1.63343e-05 -7.7504e-06 0)
(1.71087e-05 -6.70399e-06 0)
(1.76426e-05 -5.91063e-06 0)
(1.79805e-05 -5.37572e-06 0)
(1.81638e-05 -5.13186e-06 0)
(1.81505e-05 -5.29929e-06 0)
(1.77611e-05 -6.28106e-06 0)
(1.75502e-05 -8.65092e-06 0)
(2.6224e-05 -1.0733e-05 0)
(-1.26159e-05 -4.52861e-05 0)
(-5.76473e-06 -3.75743e-05 0)
(-4.50624e-06 -3.12764e-05 0)
(-2.82745e-06 -2.65428e-05 0)
(-7.08669e-07 -2.25038e-05 0)
(1.71554e-06 -1.89536e-05 0)
(4.21043e-06 -1.58844e-05 0)
(6.61456e-06 -1.32791e-05 0)
(8.82518e-06 -1.10944e-05 0)
(1.07851e-05 -9.281e-06 0)
(1.24701e-05 -7.7937e-06 0)
(1.38785e-05 -6.59482e-06 0)
(1.50231e-05 -5.657e-06 0)
(1.59256e-05 -4.96607e-06 0)
(1.66143e-05 -4.52418e-06 0)
(1.71056e-05 -4.35684e-06 0)
(1.73192e-05 -4.55016e-06 0)
(1.70984e-05 -5.32778e-06 0)
(1.71616e-05 -6.90721e-06 0)
(2.64323e-05 -8.20487e-06 0)
(-1.44797e-05 -3.76294e-05 0)
(-7.17944e-06 -3.17318e-05 0)
(-6.03421e-06 -2.67375e-05 0)
(-4.75003e-06 -2.27836e-05 0)
(-2.95338e-06 -1.93689e-05 0)
(-7.72536e-07 -1.63416e-05 0)
(1.57407e-06 -1.36899e-05 0)
(3.93819e-06 -1.14106e-05 0)
(6.21018e-06 -9.48308e-06 0)
(8.31287e-06 -7.87748e-06 0)
(1.0199e-05 -6.56245e-06 0)
(1.18454e-05 -5.50951e-06 0)
(1.32461e-05 -4.69653e-06 0)
(1.44066e-05 -4.11054e-06 0)
(1.53401e-05 -3.7501e-06 0)
(1.60469e-05 -3.62908e-06 0)
(1.64367e-05 -3.79342e-06 0)
(1.63882e-05 -4.34063e-06 0)
(1.67188e-05 -5.31282e-06 0)
(2.64566e-05 -6.02352e-06 0)
(-1.59598e-05 -3.03902e-05 0)
(-8.34817e-06 -2.59454e-05 0)
(-7.41426e-06 -2.1999e-05 0)
(-6.38466e-06 -1.87685e-05 0)
(-4.77768e-06 -1.59694e-05 0)
(-2.73794e-06 -1.34881e-05 0)
(-4.8208e-07 -1.13029e-05 0)
(1.8517e-06 -9.40964e-06 0)
(4.1558e-06 -7.7975e-06 0)
(6.34588e-06 -6.44906e-06 0)
(8.36268e-06 -5.34402e-06 0)
(1.01693e-05 -4.46247e-06 0)
(1.1746e-05 -3.78772e-06 0)
(1.30857e-05 -3.30859e-06 0)
(1.41898e-05 -3.02067e-06 0)
(1.50492e-05 -2.92762e-06 0)
(1.55746e-05 -3.04654e-06 0)
(1.56754e-05 -3.4084e-06 0)
(1.62176e-05 -3.99211e-06 0)
(2.62006e-05 -4.36363e-06 0)
(-1.73144e-05 -2.34728e-05 0)
(-9.27703e-06 -2.01917e-05 0)
(-8.48818e-06 -1.71877e-05 0)
(-7.63898e-06 -1.46792e-05 0)
(-6.17309e-06 -1.24968e-05 0)
(-4.23593e-06 -1.05623e-05 0)
(-2.04644e-06 -8.85434e-06 0)
(2.60562e-07 -7.36784e-06 0)
(2.57892e-06 -6.09622e-06 0)
(4.82111e-06 -5.02914e-06 0)
(6.92113e-06 -4.1538e-06 0)
(8.83325e-06 -3.45682e-06 0)
(1.05283e-05 -2.92619e-06 0)
(1.19898e-05 -2.55267e-06 0)
(1.32115e-05 -2.33031e-06 0)
(1.41796e-05 -2.25627e-06 0)
(1.48103e-05 -2.33161e-06 0)
(1.50374e-05 -2.55755e-06 0)
(1.57487e-05 -2.89901e-06 0)
(2.58712e-05 -3.09142e-06 0)
(-1.83947e-05 -1.66714e-05 0)
(-9.97325e-06 -1.44226e-05 0)
(-9.26787e-06 -1.23162e-05 0)
(-8.53972e-06 -1.05327e-05 0)
(-7.17548e-06 -8.97272e-06 0)
(-5.31365e-06 -7.58786e-06 0)
(-3.17402e-06 -6.36304e-06 0)
(-8.9028e-07 -5.29415e-06 0)
(1.432e-06 -4.3771e-06 0)
(3.70355e-06 -3.60583e-06 0)
(5.85438e-06 -2.97256e-06 0)
(7.83321e-06 -2.4688e-06 0)
(9.6046e-06 -2.08639e-06 0)
(1.11461e-05 -1.81833e-06 0)
(1.24466e-05 -1.65882e-06 0)
(1.34906e-05 -1.60258e-06 0)
(1.42009e-05 -1.64426e-06 0)
(1.45283e-05 -1.77532e-06 0)
(1.5368e-05 -1.96544e-06 0)
(2.55638e-05 -2.06176e-06 0)
(-1.91226e-05 -9.95884e-06 0)
(-1.043e-05 -8.65039e-06 0)
(-9.7715e-06 -7.40409e-06 0)
(-9.11881e-06 -6.33901e-06 0)
(-7.82096e-06 -5.40321e-06 0)
(-6.00953e-06 -4.57108e-06 0)
(-3.90411e-06 -3.83421e-06 0)
(-1.63792e-06 -3.19013e-06 0)
(6.83644e-07 -2.6366e-06 0)
(2.97029e-06 -2.17042e-06 0)
(5.14971e-06 -1.78741e-06 0)
(7.16735e-06 -1.48283e-06 0)
(8.98404e-06 -1.25196e-06 0)
(1.05738e-05 -1.09038e-06 0)
(1.19229e-05 -9.93936e-07 0)
(1.30158e-05 -9.58156e-07 0)
(1.378e-05 -9.7758e-07 0)
(1.4177e-05 -1.04405e-06 0)
(1.51021e-05 -1.13831e-06 0)
(2.53312e-05 -1.18203e-06 0)
(-1.94866e-05 -3.31177e-06 0)
(-1.06546e-05 -2.88268e-06 0)
(-1.00175e-05 -2.4703e-06 0)
(-9.4013e-06 -2.11623e-06 0)
(-8.13644e-06 -1.80438e-06 0)
(-6.35048e-06 -1.52681e-06 0)
(-4.26264e-06 -1.28086e-06 0)
(-2.00594e-06 -1.06572e-06 0)
(3.14233e-07 -8.80681e-07 0)
(2.6071e-06 -7.2474e-07 0)
(4.79927e-06 -5.96575e-07 0)
(6.83466e-06 -4.94671e-07 0)
(8.6724e-06 -4.17467e-07 0)
(1.02849e-05 -3.63458e-07 0)
(1.16573e-05 -3.31144e-07 0)
(1.27741e-05 -3.18812e-07 0)
(1.35656e-05 -3.24293e-07 0)
(1.39981e-05 -3.44432e-07 0)
(1.49658e-05 -3.72721e-07 0)
(2.52068e-05 -3.85161e-07 0)
(-1.94866e-05 3.31181e-06 0)
(-1.06546e-05 2.88272e-06 0)
(-1.00175e-05 2.47034e-06 0)
(-9.4013e-06 2.11627e-06 0)
(-8.13644e-06 1.80442e-06 0)
(-6.35048e-06 1.52685e-06 0)
(-4.26264e-06 1.2809e-06 0)
(-2.00594e-06 1.06576e-06 0)
(3.14232e-07 8.80728e-07 0)
(2.6071e-06 7.24789e-07 0)
(4.79927e-06 5.96625e-07 0)
(6.83466e-06 4.9472e-07 0)
(8.6724e-06 4.17515e-07 0)
(1.02849e-05 3.63503e-07 0)
(1.16573e-05 3.31187e-07 0)
(1.27741e-05 3.18852e-07 0)
(1.35656e-05 3.24332e-07 0)
(1.39981e-05 3.44469e-07 0)
(1.49658e-05 3.72758e-07 0)
(2.52068e-05 3.85195e-07 0)
(-1.91226e-05 9.95889e-06 0)
(-1.04299e-05 8.65043e-06 0)
(-9.77149e-06 7.40412e-06 0)
(-9.11881e-06 6.33905e-06 0)
(-7.82095e-06 5.40325e-06 0)
(-6.00953e-06 4.57112e-06 0)
(-3.90411e-06 3.83425e-06 0)
(-1.63792e-06 3.19017e-06 0)
(6.83642e-07 2.63665e-06 0)
(2.97029e-06 2.17047e-06 0)
(5.14971e-06 1.78746e-06 0)
(7.16734e-06 1.48288e-06 0)
(8.98404e-06 1.252e-06 0)
(1.05738e-05 1.09042e-06 0)
(1.19229e-05 9.93978e-07 0)
(1.30158e-05 9.58195e-07 0)
(1.378e-05 9.77617e-07 0)
(1.4177e-05 1.04408e-06 0)
(1.51021e-05 1.13835e-06 0)
(2.53312e-05 1.18206e-06 0)
(-1.83946e-05 1.66714e-05 0)
(-9.97324e-06 1.44226e-05 0)
(-9.26787e-06 1.23163e-05 0)
(-8.53971e-06 1.05328e-05 0)
(-7.17547e-06 8.97276e-06 0)
(-5.31365e-06 7.5879e-06 0)
(-3.17402e-06 6.36309e-06 0)
(-8.90281e-07 5.29419e-06 0)
(1.43199e-06 4.37714e-06 0)
(3.70355e-06 3.60587e-06 0)
(5.85438e-06 2.97261e-06 0)
(7.8332e-06 2.46885e-06 0)
(9.6046e-06 2.08644e-06 0)
(1.11461e-05 1.81837e-06 0)
(1.24466e-05 1.65886e-06 0)
(1.34906e-05 1.60261e-06 0)
(1.42009e-05 1.6443e-06 0)
(1.45283e-05 1.77535e-06 0)
(1.5368e-05 1.96547e-06 0)
(2.55638e-05 2.06179e-06 0)
(-1.73144e-05 2.34728e-05 0)
(-9.27702e-06 2.01917e-05 0)
(-8.48817e-06 1.71878e-05 0)
(-7.63897e-06 1.46792e-05 0)
(-6.17309e-06 1.24968e-05 0)
(-4.23593e-06 1.05623e-05 0)
(-2.04644e-06 8.85438e-06 0)
(2.60561e-07 7.36789e-06 0)
(2.57892e-06 6.09626e-06 0)
(4.82111e-06 5.02919e-06 0)
(6.92113e-06 4.15384e-06 0)
(8.83325e-06 3.45687e-06 0)
(1.05283e-05 2.92623e-06 0)
(1.19898e-05 2.55271e-06 0)
(1.32115e-05 2.33034e-06 0)
(1.41796e-05 2.2563e-06 0)
(1.48103e-05 2.33164e-06 0)
(1.50373e-05 2.55758e-06 0)
(1.57487e-05 2.89904e-06 0)
(2.58712e-05 3.09145e-06 0)
(-1.59598e-05 3.03902e-05 0)
(-8.34816e-06 2.59455e-05 0)
(-7.41425e-06 2.1999e-05 0)
(-6.38465e-06 1.87685e-05 0)
(-4.77768e-06 1.59695e-05 0)
(-2.73793e-06 1.34882e-05 0)
(-4.82077e-07 1.13029e-05 0)
(1.8517e-06 9.40968e-06 0)
(4.1558e-06 7.79754e-06 0)
(6.34588e-06 6.44911e-06 0)
(8.36268e-06 5.34407e-06 0)
(1.01693e-05 4.46251e-06 0)
(1.1746e-05 3.78776e-06 0)
(1.30857e-05 3.30863e-06 0)
(1.41898e-05 3.02071e-06 0)
(1.50492e-05 2.92765e-06 0)
(1.55746e-05 3.04656e-06 0)
(1.56754e-05 3.40843e-06 0)
(1.62175e-05 3.99213e-06 0)
(2.62006e-05 4.36365e-06 0)
(-1.44797e-05 3.76295e-05 0)
(-7.17943e-06 3.17318e-05 0)
(-6.0342e-06 2.67375e-05 0)
(-4.75002e-06 2.27837e-05 0)
(-2.95337e-06 1.93689e-05 0)
(-7.72529e-07 1.63416e-05 0)
(1.57408e-06 1.36899e-05 0)
(3.93819e-06 1.14107e-05 0)
(6.21018e-06 9.48312e-06 0)
(8.31287e-06 7.87753e-06 0)
(1.0199e-05 6.56249e-06 0)
(1.18454e-05 5.50955e-06 0)
(1.32461e-05 4.69656e-06 0)
(1.44066e-05 4.11057e-06 0)
(1.53401e-05 3.75013e-06 0)
(1.60469e-05 3.62911e-06 0)
(1.64367e-05 3.79345e-06 0)
(1.63882e-05 4.34066e-06 0)
(1.67188e-05 5.31284e-06 0)
(2.64566e-05 6.02353e-06 0)
(-1.26159e-05 4.52862e-05 0)
(-5.76472e-06 3.75743e-05 0)
(-4.50622e-06 3.12765e-05 0)
(-2.82744e-06 2.65429e-05 0)
(-7.08657e-07 2.25038e-05 0)
(1.71555e-06 1.89536e-05 0)
(4.21043e-06 1.58844e-05 0)
(6.61457e-06 1.32791e-05 0)
(8.82519e-06 1.10944e-05 0)
(1.07851e-05 9.28104e-06 0)
(1.24701e-05 7.79374e-06 0)
(1.38785e-05 6.59485e-06 0)
(1.50231e-05 5.65703e-06 0)
(1.59256e-05 4.9661e-06 0)
(1.66143e-05 4.52421e-06 0)
(1.71056e-05 4.35686e-06 0)
(1.73192e-05 4.55018e-06 0)
(1.70983e-05 5.3278e-06 0)
(1.71616e-05 6.90722e-06 0)
(2.64323e-05 8.20487e-06 0)
(-1.12404e-05 5.06025e-05 0)
(-5.23824e-06 4.24841e-05 0)
(-3.98196e-06 3.50687e-05 0)
(-1.15738e-06 2.96764e-05 0)
(1.87551e-06 2.50895e-05 0)
(4.87033e-06 2.11317e-05 0)
(7.64702e-06 1.77783e-05 0)
(1.0101e-05 1.49684e-05 0)
(1.21886e-05 1.26235e-05 0)
(1.39082e-05 1.0674e-05 0)
(1.52797e-05 9.06389e-06 0)
(1.63343e-05 7.75043e-06 0)
(1.71087e-05 6.70402e-06 0)
(1.76426e-05 5.91066e-06 0)
(1.79804e-05 5.37575e-06 0)
(1.81638e-05 5.13187e-06 0)
(1.81505e-05 5.2993e-06 0)
(1.7761e-05 6.28107e-06 0)
(1.75502e-05 8.65093e-06 0)
(2.62239e-05 1.0733e-05 0)
(-3.65182e-05 3.7637e-05 0)
(-1.18305e-05 4.45614e-05 0)
(-7.36167e-06 3.77818e-05 0)
(-4.75339e-07 3.29725e-05 0)
(5.10039e-06 2.81714e-05 0)
(9.31863e-06 2.39661e-05 0)
(1.2523e-05 2.04277e-05 0)
(1.49467e-05 1.74518e-05 0)
(1.6739e-05 1.49379e-05 0)
(1.80172e-05 1.28148e-05 0)
(1.88741e-05 1.10305e-05 0)
(1.93846e-05 9.54666e-06 0)
(1.96109e-05 8.33684e-06 0)
(1.96073e-05 7.38869e-06 0)
(1.94291e-05 6.70849e-06 0)
(1.91462e-05 6.32332e-06 0)
(1.87905e-05 6.34739e-06 0)
(1.82111e-05 7.35837e-06 0)
(1.80925e-05 1.07542e-05 0)
(2.94202e-05 1.34884e-05 0)
(-0.000226205 0.00025007 0)
(-1.07374e-05 7.79206e-05 0)
(-1.18098e-05 5.96415e-05 0)
(2.54257e-06 5.55424e-05 0)
(1.14578e-05 5.01557e-05 0)
(1.66854e-05 4.45581e-05 0)
(1.97873e-05 3.92887e-05 0)
(2.16186e-05 3.44733e-05 0)
(2.26062e-05 3.01701e-05 0)
(2.30034e-05 2.63954e-05 0)
(2.29729e-05 2.31376e-05 0)
(2.26227e-05 2.03751e-05 0)
(2.20257e-05 1.8088e-05 0)
(2.12304e-05 1.62685e-05 0)
(2.02751e-05 1.49346e-05 0)
(1.92127e-05 1.41191e-05 0)
(1.80273e-05 1.38215e-05 0)
(1.64142e-05 1.46934e-05 0)
(1.48719e-05 2.1918e-05 0)
(4.41455e-05 4.46517e-05 0)
)
;

boundaryField
{
    leftWall
    {
        type            noSlip;
    }
    rightWall
    {
        type            noSlip;
    }
    topWall
    {
        type            noSlip;
    }
    bottomWall
    {
        type            noSlip;
    }
    frontAndBackPlanes
    {
        type            empty;
    }
}


// ************************************************************************* //
