/*--------------------------------*- C++ -*----------------------------------*\
| =========                 |                                                 |
| \\      /  F ield         | OpenFOAM: The Open Source CFD Toolbox           |
|  \\    /   O peration     | Version:  2506                                  |
|   \\  /    A nd           | Website:  www.openfoam.com                      |
|    \\/     M anipulation  |                                                 |
\*---------------------------------------------------------------------------*/
FoamFile
{
    version     2.0;
    format      ascii;
    arch        "LSB;label=32;scalar=64";
    class       volScalarField;
    location    "1.247934";
    object      alphat;
}
// * * * * * * * * * * * * * * * * * * * * * * * * * * * * * * * * * * * * * //

dimensions      [1 -1 -1 0 0 0 0];

internalField   nonuniform List<scalar> 
200
(
0.115001
0.206601
0.247443
0.272315
0.289749
0.302603
0.312115
0.318905
0.323296
0.325458
0.20632
1.78982
2.53878
2.94009
3.19416
3.36738
3.48796
3.57008
3.62146
3.64625
0.247037
2.53747
4.05174
4.9495
5.52837
5.9212
6.19211
6.37492
6.48845
6.54299
0.271832
2.9379
4.94822
6.23019
7.08474
7.67236
8.07927
8.35399
8.52448
8.60632
0.289215
3.19137
5.52606
7.08356
8.15017
8.89459
9.41408
9.76612
9.98497
10.0901
0.30203
3.36415
5.9181
7.67019
8.89353
9.75816
10.3662
10.7802
11.0382
11.1623
0.311515
3.48441
6.1884
8.07631
9.41212
10.3653
11.04
11.5012
11.7894
11.9283
0.318285
3.5663
6.37074
8.35039
9.76342
10.7784
11.5004
11.9956
12.3057
12.4553
0.322661
3.6175
6.48392
8.52039
9.98169
11.0358
11.7879
12.305
12.6293
12.7859
0.324813
3.64217
6.53821
8.60188
10.0864
11.1594
11.9262
12.454
12.7853
12.9453
0.324813
3.64217
6.53821
8.60188
10.0864
11.1594
11.9262
12.454
12.7853
12.9453
0.322661
3.6175
6.48392
8.52039
9.98169
11.0358
11.7879
12.305
12.6293
12.7859
0.318285
3.5663
6.37074
8.35039
9.76342
10.7784
11.5004
11.9956
12.3057
12.4553
0.311515
3.48441
6.1884
8.0763
9.41212
10.3653
11.04
11.5012
11.7894
11.9283
0.30203
3.36415
5.9181
7.67019
8.89353
9.75816
10.3662
10.7802
11.0382
11.1623
0.289215
3.19137
5.52606
7.08356
8.15017
8.89459
9.41408
9.76612
9.98497
10.0901
0.271832
2.9379
4.94822
6.23019
7.08474
7.67236
8.07927
8.35399
8.52448
8.60632
0.247037
2.53747
4.05174
4.9495
5.52837
5.9212
6.19211
6.37492
6.48845
6.54299
0.20632
1.78982
2.53878
2.94009
3.19416
3.36738
3.48796
3.57008
3.62146
3.64625
0.115001
0.206601
0.247443
0.272315
0.289749
0.302602
0.312115
0.318905
0.323296
0.325458
)
;

boundaryField
{
    leftWall
    {
        type            compressible::alphatWallFunction;
        value           nonuniform List<scalar> 
20
(
0.0227219
0.0358443
0.0413139
0.0443733
0.0463396
0.0476707
0.04858
0.0491852
0.0495557
0.0497316
0.0497316
0.0495557
0.0491852
0.04858
0.0476707
0.0463396
0.0443733
0.0413139
0.0358443
0.0227219
)
;
    }
    rightWall
    {
        type            compressible::alphatWallFunction;
        value           nonuniform List<scalar> 0();
    }
    topWall
    {
        type            compressible::alphatWallFunction;
        value           nonuniform List<scalar> 10(0.0270482 0.0430923 0.0497493 0.0534661 0.0558522 0.0574664 0.0585686 0.059302 0.0597509 0.059964);
    }
    bottomWall
    {
        type            compressible::alphatWallFunction;
        value           nonuniform List<scalar> 10(0.0270482 0.0430923 0.0497493 0.0534661 0.0558522 0.0574664 0.0585686 0.059302 0.0597509 0.059964);
    }
    frontAndBackPlanes
    {
        type            empty;
    }
    procBoundary1to0
    {
        type            processor;
        value           nonuniform List<scalar> 
20
(
0.325462
3.64631
6.54315
8.60656
10.0904
11.1626
11.9287
12.4557
12.7863
12.9457
12.9457
12.7863
12.4557
11.9287
11.1626
10.0904
8.60656
6.54315
3.64631
0.325462
)
;
    }
}


// ************************************************************************* //
