/*--------------------------------*- C++ -*----------------------------------*\
| =========                 |                                                 |
| \\      /  F ield         | OpenFOAM: The Open Source CFD Toolbox           |
|  \\    /   O peration     | Version:  2506                                  |
|   \\  /    A nd           | Website:  www.openfoam.com                      |
|    \\/     M anipulation  |                                                 |
\*---------------------------------------------------------------------------*/
FoamFile
{
    version     2.0;
    format      ascii;
    arch        "LSB;label=32;scalar=64";
    class       surfaceScalarField;
    location    "1.247934";
    object      phi;
}
// * * * * * * * * * * * * * * * * * * * * * * * * * * * * * * * * * * * * * //

dimensions      [1 0 -1 0 0 0 0];

oriented        oriented;

internalField   nonuniform List<scalar> 
370
(
-9.73161e-06
-1.32835e-05
-2.75418e-06
-7.82386e-06
9.60103e-08
-5.72127e-06
1.70304e-06
-5.04139e-06
2.6196e-06
-4.37355e-06
3.11912e-06
-3.78021e-06
3.36223e-06
-3.27262e-06
3.44348e-06
-2.83762e-06
3.41987e-06
-2.46518e-06
-2.1476e-06
-3.20423e-06
-9.25474e-06
-2.07411e-06
-7.57733e-06
-5.67378e-07
-5.97964e-06
5.09061e-07
-5.00615e-06
1.31751e-06
-4.21197e-06
1.91027e-06
-3.54448e-06
2.32298e-06
-2.99266e-06
2.59151e-06
-2.5389e-06
2.747e-06
-2.16516e-06
-1.85684e-06
-1.37222e-06
-7.60832e-06
-1.23193e-06
-6.46709e-06
-6.48821e-07
-5.37807e-06
-1.46477e-08
-4.5442e-06
5.92901e-07
-3.8315e-06
1.13048e-06
-3.21375e-06
1.5738e-06
-2.69098e-06
1.91676e-06
-2.25694e-06
2.16479e-06
-1.9e-06
-1.60808e-06
-1.5165e-06
-6.36697e-06
-1.31162e-06
-5.50059e-06
-9.06953e-07
-4.64556e-06
-4.1606e-07
-3.95736e-06
1.02139e-07
-3.35658e-06
6.02682e-07
-2.82365e-06
1.05184e-06
-2.3615e-06
1.43021e-06
-1.97059e-06
1.73099e-06
-1.64576e-06
-1.37936e-06
-1.72965e-06
-5.18576e-06
-1.54723e-06
-4.5615e-06
-1.19181e-06
-3.89553e-06
-7.47324e-07
-3.33731e-06
-2.64377e-07
-2.84333e-06
2.18329e-07
-2.39975e-06
6.69393e-07
-2.00883e-06
1.06714e-06
-1.673e-06
1.40014e-06
-1.39072e-06
-1.15775e-06
-1.88549e-06
-4.06153e-06
-1.73093e-06
-3.62618e-06
-1.41151e-06
-3.12918e-06
-9.96083e-07
-2.69562e-06
-5.34067e-07
-2.30535e-06
-6.27818e-08
-1.95138e-06
3.87967e-07
-1.6359e-06
7.96403e-07
-1.36171e-06
1.14926e-06
-1.12901e-06
-9.35706e-07
-2.00997e-06
-2.99397e-06
-1.86279e-06
-2.70344e-06
-1.56551e-06
-2.35208e-06
-1.17077e-06
-2.03627e-06
-7.24219e-07
-1.74731e-06
-2.62139e-07
-1.48273e-06
1.86547e-07
-1.2449e-06
6.00254e-07
-1.03642e-06
9.64913e-07
-8.5815e-07
-7.09236e-07
-2.10283e-06
-1.97076e-06
-1.9547e-06
-1.79398e-06
-1.66859e-06
-1.56987e-06
-1.28696e-06
-1.36426e-06
-8.51304e-07
-1.17373e-06
-3.96419e-07
-9.97949e-07
4.95877e-08
-8.38939e-07
4.65422e-07
-6.98718e-07
8.36686e-07
-5.78171e-07
-4.7706e-07
-2.16324e-06
-9.77723e-07
-2.01234e-06
-8.94373e-07
-1.73143e-06
-7.85375e-07
-1.35729e-06
-6.84121e-07
-9.2851e-07
-5.89555e-07
-4.78558e-07
-5.01881e-07
-3.48688e-08
-4.22265e-07
3.81549e-07
-3.51804e-07
7.56187e-07
-2.91036e-07
-2.39936e-07
-2.19287e-06
2.13328e-12
-2.03996e-06
2.19159e-12
-1.76104e-06
2.2887e-12
-1.3903e-06
2.52755e-12
-9.64828e-07
2.85511e-12
-5.17383e-07
3.23914e-12
-7.50097e-08
3.65351e-12
3.41454e-07
4.06387e-12
7.17477e-07
4.41951e-12
4.62642e-12
-2.19287e-06
9.77727e-07
-2.03996e-06
8.94378e-07
-1.76104e-06
7.8538e-07
-1.39029e-06
6.84126e-07
-9.64828e-07
5.89561e-07
-5.17383e-07
5.01888e-07
-7.50091e-08
4.22272e-07
3.41455e-07
3.51812e-07
7.17477e-07
2.91045e-07
2.39945e-07
-2.16324e-06
1.97077e-06
-2.01234e-06
1.79398e-06
-1.73143e-06
1.56988e-06
-1.35729e-06
1.36426e-06
-9.28509e-07
1.17374e-06
-4.78557e-07
9.97955e-07
-3.48673e-08
8.38946e-07
3.8155e-07
6.98725e-07
7.56188e-07
5.78179e-07
4.77068e-07
-2.10283e-06
2.99397e-06
-1.9547e-06
2.70344e-06
-1.66859e-06
2.35208e-06
-1.28695e-06
2.03628e-06
-8.51301e-07
1.74731e-06
-3.96416e-07
1.48273e-06
4.95901e-08
1.2449e-06
4.65425e-07
1.03643e-06
8.36688e-07
8.58156e-07
7.09243e-07
-2.00996e-06
4.06153e-06
-1.86278e-06
3.62618e-06
-1.56551e-06
3.12918e-06
-1.17077e-06
2.69562e-06
-7.24215e-07
2.30536e-06
-2.62136e-07
1.95138e-06
1.8655e-07
1.6359e-06
6.00257e-07
1.36172e-06
9.64915e-07
1.12902e-06
9.35711e-07
-1.88549e-06
5.18576e-06
-1.73093e-06
4.5615e-06
-1.41151e-06
3.89553e-06
-9.96079e-07
3.33731e-06
-5.34063e-07
2.84333e-06
-6.27782e-08
2.39976e-06
3.8797e-07
2.00883e-06
7.96406e-07
1.673e-06
1.14926e-06
1.39072e-06
1.15775e-06
-1.72965e-06
6.36697e-06
-1.54723e-06
5.50059e-06
-1.19181e-06
4.64556e-06
-7.4732e-07
3.95736e-06
-2.64373e-07
3.35658e-06
2.18333e-07
2.82365e-06
6.69397e-07
2.3615e-06
1.06715e-06
1.97059e-06
1.40014e-06
1.64577e-06
1.37936e-06
-1.5165e-06
7.60832e-06
-1.31161e-06
6.46709e-06
-9.0695e-07
5.37808e-06
-4.16056e-07
4.5442e-06
1.02143e-07
3.8315e-06
6.02686e-07
3.21375e-06
1.05185e-06
2.69098e-06
1.43021e-06
2.25694e-06
1.73099e-06
1.9e-06
1.60808e-06
-1.37222e-06
9.25474e-06
-1.23192e-06
7.57733e-06
-6.48818e-07
5.97964e-06
-1.46443e-08
5.00615e-06
5.92904e-07
4.21197e-06
1.13048e-06
3.54448e-06
1.5738e-06
2.99266e-06
1.91676e-06
2.5389e-06
2.16479e-06
2.16516e-06
1.85683e-06
-3.20423e-06
1.32835e-05
-2.0741e-06
7.82386e-06
-5.67375e-07
5.72127e-06
5.09064e-07
5.04139e-06
1.31751e-06
4.37355e-06
1.91028e-06
3.78021e-06
2.32298e-06
3.27262e-06
2.59152e-06
2.83762e-06
2.747e-06
2.46518e-06
2.14759e-06
-9.73161e-06
-2.75418e-06
9.60132e-08
1.70304e-06
2.6196e-06
3.11912e-06
3.36223e-06
3.44349e-06
3.41987e-06
)
;

boundaryField
{
    leftWall
    {
        type            calculated;
        value           nonuniform List<scalar> 
20
(
1.21497e-05
5.94642e-07
9.65822e-07
1.42139e-06
1.63849e-06
1.81185e-06
1.96289e-06
2.07732e-06
2.15228e-06
2.18925e-06
2.18925e-06
2.15228e-06
2.07731e-06
1.96289e-06
1.81185e-06
1.63849e-06
1.42139e-06
9.6582e-07
5.9464e-07
1.21497e-05
)
;
    }
    rightWall
    {
        type            calculated;
        value           nonuniform List<scalar> 0();
    }
    topWall
    {
        type            calculated;
        value           nonuniform List<scalar> 10(1.24975e-05 2.45094e-06 4.18162e-06 4.51666e-06 4.34832e-06 4.00504e-06 3.60833e-06 3.21088e-06 2.83964e-06 2.50601e-06);
    }
    bottomWall
    {
        type            calculated;
        value           nonuniform List<scalar> 10(1.24975e-05 2.45094e-06 4.18162e-06 4.51666e-06 4.34832e-06 4.00504e-06 3.60833e-06 3.21088e-06 2.83964e-06 2.50601e-06);
    }
    frontAndBackPlanes
    {
        type            empty;
    }
    procBoundary1to0
    {
        type            processor;
        value           nonuniform List<scalar> 
20
(
3.32786e-06
2.81527e-06
2.32917e-06
1.95621e-06
1.66541e-06
1.44086e-06
1.27333e-06
1.15534e-06
1.08056e-06
1.04438e-06
1.04438e-06
1.08056e-06
1.15534e-06
1.27333e-06
1.44086e-06
1.66541e-06
1.95621e-06
2.32917e-06
2.81527e-06
3.32786e-06
)
;
    }
}


// ************************************************************************* //
