/*--------------------------------*- C++ -*----------------------------------*\
| =========                 |                                                 |
| \\      /  F ield         | OpenFOAM: The Open Source CFD Toolbox           |
|  \\    /   O peration     | Version:  2506                                  |
|   \\  /    A nd           | Website:  www.openfoam.com                      |
|    \\/     M anipulation  |                                                 |
\*---------------------------------------------------------------------------*/
FoamFile
{
    version     2.0;
    format      ascii;
    arch        "LSB;label=32;scalar=64";
    class       volScalarField;
    location    "1.247934";
    object      rho;
}
// * * * * * * * * * * * * * * * * * * * * * * * * * * * * * * * * * * * * * //

dimensions      [1 -3 0 0 0 0 0];

internalField   nonuniform List<scalar> 
200
(
997.874
1000.18
1000.69
1000.92
1001.06
1001.15
1001.21
1001.26
1001.29
1001.31
998.61
1000.04
1000.52
1000.78
1000.95
1001.07
1001.15
1001.21
1001.25
1001.28
998.833
1000.04
1000.47
1000.73
1000.9
1001.03
1001.11
1001.18
1001.23
1001.27
998.913
1000.04
1000.45
1000.7
1000.87
1001
1001.09
1001.16
1001.21
1001.25
998.953
1000.05
1000.44
1000.68
1000.85
1000.98
1001.07
1001.14
1001.2
1001.24
998.976
1000.05
1000.44
1000.67
1000.84
1000.96
1001.06
1001.13
1001.19
1001.23
998.991
1000.05
1000.43
1000.66
1000.83
1000.95
1001.05
1001.12
1001.18
1001.22
999
1000.05
1000.43
1000.66
1000.82
1000.94
1001.04
1001.11
1001.17
1001.22
999.006
1000.05
1000.43
1000.65
1000.81
1000.94
1001.03
1001.11
1001.17
1001.22
999.009
1000.05
1000.43
1000.65
1000.81
1000.94
1001.03
1001.11
1001.17
1001.21
999.009
1000.05
1000.43
1000.65
1000.81
1000.94
1001.03
1001.11
1001.17
1001.21
999.006
1000.05
1000.43
1000.65
1000.81
1000.94
1001.03
1001.11
1001.17
1001.22
999
1000.05
1000.43
1000.66
1000.82
1000.94
1001.04
1001.11
1001.17
1001.22
998.991
1000.05
1000.43
1000.66
1000.83
1000.95
1001.05
1001.12
1001.18
1001.22
998.976
1000.05
1000.44
1000.67
1000.84
1000.96
1001.06
1001.13
1001.19
1001.23
998.953
1000.05
1000.44
1000.68
1000.85
1000.98
1001.07
1001.14
1001.2
1001.24
998.913
1000.04
1000.45
1000.7
1000.87
1001
1001.09
1001.16
1001.21
1001.25
998.833
1000.04
1000.47
1000.73
1000.9
1001.03
1001.11
1001.18
1001.23
1001.27
998.61
1000.04
1000.52
1000.78
1000.95
1001.07
1001.15
1001.21
1001.25
1001.28
997.874
1000.18
1000.69
1000.92
1001.06
1001.15
1001.21
1001.26
1001.29
1001.31
)
;

boundaryField
{
    leftWall
    {
        type            calculated;
        value           uniform 973.493;
    }
    rightWall
    {
        type            calculated;
        value           nonuniform List<scalar> 0();
    }
    topWall
    {
        type            calculated;
        value           uniform 1001.36;
    }
    bottomWall
    {
        type            calculated;
        value           uniform 1001.36;
    }
    frontAndBackPlanes
    {
        type            empty;
    }
    procBoundary1to0
    {
        type            processor;
        value           nonuniform List<scalar> 
20
(
1001.32
1001.31
1001.29
1001.28
1001.27
1001.26
1001.26
1001.25
1001.25
1001.25
1001.25
1001.25
1001.25
1001.26
1001.26
1001.27
1001.28
1001.29
1001.31
1001.32
)
;
    }
}


// ************************************************************************* //
