/*--------------------------------*- C++ -*----------------------------------*\
| =========                 |                                                 |
| \\      /  F ield         | OpenFOAM: The Open Source CFD Toolbox           |
|  \\    /   O peration     | Version:  2506                                  |
|   \\  /    A nd           | Website:  www.openfoam.com                      |
|    \\/     M anipulation  |                                                 |
\*---------------------------------------------------------------------------*/
FoamFile
{
    version     2.0;
    format      ascii;
    arch        "LSB;label=32;scalar=64";
    class       volScalarField;
    location    "1.247934";
    object      T;
}
// * * * * * * * * * * * * * * * * * * * * * * * * * * * * * * * * * * * * * //

dimensions      [0 0 0 1 0 0 0];

internalField   nonuniform List<scalar> 
200
(
286.951
277.785
275.707
274.786
274.231
273.861
273.605
273.425
273.298
273.208
284.042
278.34
276.41
275.341
274.656
274.186
273.854
273.614
273.441
273.315
283.16
278.346
276.598
275.561
274.859
274.36
273.997
273.729
273.531
273.385
282.838
278.32
276.677
275.68
274.986
274.478
274.099
273.815
273.601
273.441
282.682
278.302
276.719
275.753
275.07
274.562
274.176
273.882
273.658
273.487
282.59
278.293
276.745
275.801
275.128
274.622
274.233
273.933
273.702
273.524
282.531
278.287
276.763
275.833
275.168
274.665
274.275
273.972
273.736
273.553
282.493
278.285
276.775
275.855
275.195
274.694
274.304
273.999
273.76
273.574
282.47
278.283
276.782
275.868
275.212
274.712
274.323
274.016
273.776
273.588
282.46
278.283
276.786
275.874
275.22
274.721
274.332
274.025
273.784
273.595
282.46
278.283
276.786
275.874
275.22
274.721
274.332
274.025
273.784
273.595
282.47
278.283
276.782
275.868
275.212
274.712
274.323
274.016
273.776
273.588
282.493
278.285
276.775
275.855
275.195
274.694
274.304
273.999
273.76
273.574
282.531
278.287
276.763
275.833
275.168
274.665
274.275
273.972
273.736
273.553
282.59
278.293
276.745
275.801
275.128
274.622
274.233
273.933
273.702
273.524
282.682
278.302
276.719
275.753
275.07
274.562
274.176
273.882
273.658
273.487
282.838
278.32
276.677
275.68
274.986
274.478
274.099
273.815
273.601
273.441
283.16
278.346
276.598
275.561
274.859
274.36
273.997
273.729
273.531
273.385
284.042
278.34
276.41
275.341
274.656
274.186
273.854
273.614
273.441
273.315
286.951
277.785
275.707
274.786
274.231
273.861
273.605
273.425
273.298
273.208
)
;

boundaryField
{
    leftWall
    {
        type            fixedValue;
        value           uniform 373;
    }
    rightWall
    {
        type            fixedValue;
        value           nonuniform List<scalar> 0();
    }
    topWall
    {
        type            fixedValue;
        value           uniform 273;
    }
    bottomWall
    {
        type            fixedValue;
        value           uniform 273;
    }
    frontAndBackPlanes
    {
        type            empty;
    }
    procBoundary1to0
    {
        type            processor;
        value           nonuniform List<scalar> 
20
(
273.145
273.224
273.278
273.322
273.358
273.389
273.413
273.43
273.442
273.448
273.448
273.442
273.43
273.413
273.389
273.358
273.322
273.278
273.224
273.145
)
;
    }
}


// ************************************************************************* //
