/*--------------------------------*- C++ -*----------------------------------*\
| =========                 |                                                 |
| \\      /  F ield         | OpenFOAM: The Open Source CFD Toolbox           |
|  \\    /   O peration     | Version:  2506                                  |
|   \\  /    A nd           | Website:  www.openfoam.com                      |
|    \\/     M anipulation  |                                                 |
\*---------------------------------------------------------------------------*/
FoamFile
{
    version     2.0;
    format      ascii;
    arch        "LSB;label=32;scalar=64";
    class       volScalarField;
    location    "1.9290251";
    object      alphat;
}
// * * * * * * * * * * * * * * * * * * * * * * * * * * * * * * * * * * * * * //

dimensions      [1 -1 -1 0 0 0 0];

internalField   nonuniform List<scalar> 
200
(
0.248965
0.247435
0.244305
0.239421
0.232498
0.223012
0.209943
0.191002
0.159463
0.0882351
2.89495
2.87441
2.83182
2.76394
2.66473
2.52304
2.31651
1.99247
1.39342
0.159468
5.34118
5.29355
5.19455
5.03605
4.80304
4.46827
3.97995
3.23182
1.99251
0.19101
7.14579
7.0723
6.91947
6.67481
6.31573
5.80285
5.06657
3.98001
2.31657
0.209954
8.47596
8.37982
8.1801
7.86102
7.39476
6.73467
5.80292
4.46838
2.52314
0.223024
9.45513
9.34026
9.1019
8.72215
8.16995
7.39486
6.31589
4.80322
2.66485
0.232512
10.1648
10.0352
9.76671
9.34001
8.7223
7.86126
6.67508
5.0363
2.76409
0.239437
10.6586
10.5182
10.2276
9.76692
9.10225
8.18051
6.91988
5.19488
2.83201
0.244323
10.9708
10.8233
10.5185
10.0357
9.34085
8.38045
7.07288
5.294
2.87465
0.247457
11.1221
10.9712
10.6592
10.1657
9.45605
8.47686
7.14658
5.34177
2.89524
0.248991
11.1221
10.9712
10.6592
10.1657
9.45605
8.47686
7.14658
5.34177
2.89524
0.248991
10.9708
10.8233
10.5185
10.0357
9.34085
8.38046
7.07288
5.294
2.87465
0.247457
10.6586
10.5182
10.2276
9.76692
9.10225
8.18051
6.91988
5.19488
2.83201
0.244323
10.1648
10.0352
9.76671
9.34001
8.7223
7.86126
6.67508
5.0363
2.76409
0.239437
9.45514
9.34026
9.1019
8.72215
8.16995
7.39486
6.31589
4.80322
2.66485
0.232512
8.47596
8.37983
8.1801
7.86102
7.39476
6.73467
5.80292
4.46839
2.52314
0.223024
7.14579
7.0723
6.91947
6.67481
6.31573
5.80285
5.06657
3.98001
2.31657
0.209954
5.34118
5.29355
5.19455
5.03605
4.80304
4.46827
3.97995
3.23182
1.99251
0.19101
2.89495
2.87441
2.83182
2.76394
2.66473
2.52304
2.31651
1.99247
1.39342
0.159468
0.248965
0.247435
0.244305
0.239421
0.232498
0.223012
0.209943
0.191002
0.159463
0.0882351
)
;

boundaryField
{
    leftWall
    {
        type            compressible::alphatWallFunction;
        value           nonuniform List<scalar> 0();
    }
    rightWall
    {
        type            compressible::alphatWallFunction;
        value           nonuniform List<scalar> 
20
(
0.0199161
0.0331475
0.0387008
0.0418923
0.0440096
0.0454922
0.0465398
0.047259
0.0477107
0.0479288
0.0479288
0.0477107
0.047259
0.0465398
0.0454922
0.0440096
0.0418923
0.0387008
0.0331475
0.0199161
)
;
    }
    topWall
    {
        type            compressible::alphatWallFunction;
        value           nonuniform List<scalar> 10(0.0479277 0.0477095 0.0472578 0.0465385 0.0454909 0.0440084 0.0418912 0.0386999 0.0331469 0.0199161);
    }
    bottomWall
    {
        type            compressible::alphatWallFunction;
        value           nonuniform List<scalar> 10(0.0479277 0.0477095 0.0472578 0.0465385 0.0454909 0.0440084 0.0418912 0.0386999 0.0331469 0.0199161);
    }
    frontAndBackPlanes
    {
        type            empty;
    }
    procBoundary0to1
    {
        type            processor;
        value           nonuniform List<scalar> 
20
(
0.248959
2.89487
5.341
7.14553
8.47563
9.45476
10.1644
10.6581
10.9703
11.1216
11.1216
10.9703
10.6581
10.1644
9.45476
8.47563
7.14553
5.341
2.89487
0.248959
)
;
    }
}


// ************************************************************************* //
