/*--------------------------------*- C++ -*----------------------------------*\
| =========                 |                                                 |
| \\      /  F ield         | OpenFOAM: The Open Source CFD Toolbox           |
|  \\    /   O peration     | Version:  2506                                  |
|   \\  /    A nd           | Website:  www.openfoam.com                      |
|    \\/     M anipulation  |                                                 |
\*---------------------------------------------------------------------------*/
FoamFile
{
    version     2.0;
    format      ascii;
    arch        "LSB;label=32;scalar=64";
    class       surfaceScalarField;
    location    "1.9290251";
    object      phi;
}
// * * * * * * * * * * * * * * * * * * * * * * * * * * * * * * * * * * * * * //

dimensions      [1 0 -1 0 0 0 0];

oriented        oriented;

internalField   nonuniform List<scalar> 
370
(
2.85379e-06
-1.47799e-06
2.79435e-06
-1.29231e-06
2.70728e-06
-1.13858e-06
2.59773e-06
-1.01581e-06
2.46911e-06
-9.24932e-07
2.32247e-06
-8.67893e-07
2.16521e-06
-8.46468e-07
2.09142e-06
-9.18689e-07
2.47201e-06
-1.45599e-06
-2.48112e-06
2.39447e-06
-1.25356e-06
2.4405e-06
-1.08006e-06
2.45441e-06
-9.4004e-07
2.44289e-06
-8.31872e-07
2.41221e-06
-7.56328e-07
2.36968e-06
-7.16836e-07
2.33487e-06
-7.28082e-07
2.34055e-06
-8.62063e-07
2.20104e-06
-1.27305e-06
-1.66652e-06
1.9785e-06
-1.06605e-06
2.09293e-06
-9.07172e-07
2.17481e-06
-7.81687e-07
2.22909e-06
-6.878e-07
2.26044e-06
-6.25979e-07
2.27356e-06
-5.99916e-07
2.27167e-06
-6.23262e-07
2.2262e-06
-7.3694e-07
1.99871e-06
-9.86672e-07
-1.1958e-06
1.64889e-06
-8.99416e-07
1.80868e-06
-7.58194e-07
1.93681e-06
-6.48416e-07
2.0361e-06
-5.6838e-07
2.10917e-06
-5.18142e-07
2.1574e-06
-5.00242e-07
2.17663e-06
-5.23084e-07
2.14053e-06
-6.06039e-07
1.98839e-06
-7.61982e-07
-8.79607e-07
1.37949e-06
-7.4403e-07
1.57022e-06
-6.2308e-07
1.73053e-06
-5.30084e-07
1.86132e-06
-4.63542e-07
1.96342e-06
-4.23101e-07
2.03636e-06
-4.09902e-07
2.07502e-06
-4.27928e-07
2.06205e-06
-4.84928e-07
1.96595e-06
-5.81275e-07
-6.44299e-07
1.15967e-06
-5.94038e-07
1.37144e-06
-4.95312e-07
1.554e-06
-4.19937e-07
1.7067e-06
-3.66644e-07
1.82913e-06
-3.34792e-07
1.91996e-06
-3.2445e-07
1.97488e-06
-3.36765e-07
1.98314e-06
-3.73631e-07
1.92792e-06
-4.31087e-07
-4.63827e-07
9.85845e-07
-4.45927e-07
1.21163e-06
-3.70809e-07
1.40922e-06
-3.13695e-07
1.57693e-06
-2.73576e-07
1.71355e-06
-2.49719e-07
1.81755e-06
-2.41619e-07
1.88587e-06
-2.48998e-07
1.91247e-06
-2.71315e-07
1.88906e-06
-3.04239e-07
-3.20796e-07
8.56507e-07
-2.97857e-07
1.09124e-06
-2.47287e-07
1.29861e-06
-2.08924e-07
1.47627e-06
-1.82055e-07
1.62258e-06
-1.66059e-07
1.73612e-06
-1.60324e-07
1.81501e-06
-1.64164e-07
1.85622e-06
-1.76487e-07
1.85598e-06
-1.94077e-07
-2.01974e-07
7.70743e-07
-1.49174e-07
1.01074e-06
-1.23746e-07
1.22397e-06
-1.04475e-07
1.40768e-06
-9.0992e-08
1.56009e-06
-8.2944e-08
1.67993e-06
-7.99423e-08
1.76613e-06
-8.15048e-08
1.81741e-06
-8.69048e-08
1.83212e-06
-9.44836e-08
-9.7602e-08
7.27995e-07
3.10823e-12
9.70415e-07
3.0775e-12
1.18638e-06
2.96602e-12
1.37298e-06
2.82059e-12
1.52834e-06
2.67382e-12
1.65132e-06
2.53329e-12
1.74126e-06
2.4139e-12
1.79764e-06
2.31931e-12
1.81966e-06
2.27019e-12
2.14771e-12
7.27995e-07
1.4918e-07
9.70415e-07
1.23752e-07
1.18638e-06
1.04481e-07
1.37298e-06
9.09976e-08
1.52834e-06
8.29493e-08
1.65132e-06
7.99473e-08
1.74126e-06
8.15096e-08
1.79764e-06
8.69093e-08
1.81966e-06
9.44881e-08
9.76062e-08
7.70742e-07
2.97863e-07
1.01074e-06
2.47293e-07
1.22396e-06
2.0893e-07
1.40768e-06
1.82061e-07
1.56009e-06
1.66064e-07
1.67993e-06
1.60329e-07
1.76613e-06
1.64168e-07
1.81741e-06
1.76491e-07
1.83212e-06
1.94082e-07
2.01978e-07
8.56507e-07
4.45933e-07
1.09124e-06
3.70814e-07
1.29861e-06
3.13701e-07
1.47626e-06
2.73581e-07
1.62258e-06
2.49724e-07
1.73612e-06
2.41623e-07
1.81501e-06
2.49002e-07
1.85622e-06
2.71319e-07
1.85598e-06
3.04243e-07
3.208e-07
9.85844e-07
5.94043e-07
1.21163e-06
4.95317e-07
1.40922e-06
4.19942e-07
1.57693e-06
3.66648e-07
1.71355e-06
3.34797e-07
1.81754e-06
3.24454e-07
1.88587e-06
3.36769e-07
1.91247e-06
3.73634e-07
1.88906e-06
4.3109e-07
4.6383e-07
1.15967e-06
7.44035e-07
1.37144e-06
6.23084e-07
1.554e-06
5.30088e-07
1.7067e-06
4.63546e-07
1.82913e-06
4.23105e-07
1.91995e-06
4.09906e-07
1.97487e-06
4.27931e-07
1.98314e-06
4.84931e-07
1.92791e-06
5.81278e-07
6.44301e-07
1.37949e-06
8.99421e-07
1.57022e-06
7.58199e-07
1.73053e-06
6.4842e-07
1.86132e-06
5.68384e-07
1.96342e-06
5.18146e-07
2.03636e-06
5.00245e-07
2.07502e-06
5.23087e-07
2.06204e-06
6.06041e-07
1.96595e-06
7.61984e-07
8.79608e-07
1.64889e-06
1.06606e-06
1.80868e-06
9.07176e-07
1.93681e-06
7.81691e-07
2.0361e-06
6.87804e-07
2.10916e-06
6.25982e-07
2.15739e-06
5.99919e-07
2.17663e-06
6.23264e-07
2.14053e-06
7.36942e-07
1.98839e-06
9.86674e-07
1.1958e-06
1.9785e-06
1.25356e-06
2.09293e-06
1.08006e-06
2.17481e-06
9.40043e-07
2.22909e-06
8.31875e-07
2.26044e-06
7.5633e-07
2.27356e-06
7.16838e-07
2.27166e-06
7.28084e-07
2.2262e-06
8.62064e-07
1.9987e-06
1.27305e-06
1.66652e-06
2.39447e-06
1.478e-06
2.4405e-06
1.29231e-06
2.45441e-06
1.13858e-06
2.44289e-06
1.01581e-06
2.41221e-06
9.24934e-07
2.36968e-06
8.67895e-07
2.33487e-06
8.46469e-07
2.34055e-06
9.1869e-07
2.20104e-06
1.45599e-06
2.48112e-06
2.85379e-06
2.79435e-06
2.70728e-06
2.59773e-06
2.4691e-06
2.32246e-06
2.1652e-06
2.09142e-06
2.472e-06
)
;

boundaryField
{
    leftWall
    {
        type            calculated;
        value           nonuniform List<scalar> 0();
    }
    rightWall
    {
        type            calculated;
        value           nonuniform List<scalar> 
20
(
2.47913e-06
1.40885e-06
1.56369e-06
1.7192e-06
1.78752e-06
1.81279e-06
1.81834e-06
1.81482e-06
1.80902e-06
1.80516e-06
1.80516e-06
1.80902e-06
1.81481e-06
1.81834e-06
1.81279e-06
1.78752e-06
1.7192e-06
1.56369e-06
1.40885e-06
2.47913e-06
)
;
    }
    topWall
    {
        type            calculated;
        value           nonuniform List<scalar> 10(1.75646e-06 1.55785e-06 1.39042e-06 1.25513e-06 1.154e-06 1.09059e-06 1.05949e-06 1.03101e-06 1.09811e-06 2.47913e-06);
    }
    bottomWall
    {
        type            calculated;
        value           nonuniform List<scalar> 10(1.75646e-06 1.55785e-06 1.39042e-06 1.25513e-06 1.154e-06 1.09059e-06 1.05949e-06 1.03101e-06 1.09811e-06 2.47913e-06);
    }
    frontAndBackPlanes
    {
        type            empty;
    }
    procBoundary0to1
    {
        type            processor;
        value           nonuniform List<scalar> 
20
(
-2.87805e-06
-2.309e-06
-1.82669e-06
-1.45529e-06
-1.1584e-06
-9.20369e-07
-7.3474e-07
-5.98054e-07
-5.08076e-07
-4.63421e-07
-4.63421e-07
-5.08075e-07
-5.98053e-07
-7.34739e-07
-9.20369e-07
-1.1584e-06
-1.45529e-06
-1.82669e-06
-2.309e-06
-2.87805e-06
)
;
    }
}


// ************************************************************************* //
