/*--------------------------------*- C++ -*----------------------------------*\
| =========                 |                                                 |
| \\      /  F ield         | OpenFOAM: The Open Source CFD Toolbox           |
|  \\    /   O peration     | Version:  2506                                  |
|   \\  /    A nd           | Website:  www.openfoam.com                      |
|    \\/     M anipulation  |                                                 |
\*---------------------------------------------------------------------------*/
FoamFile
{
    version     2.0;
    format      ascii;
    arch        "LSB;label=32;scalar=64";
    class       volScalarField;
    location    "1.9290251";
    object      T;
}
// * * * * * * * * * * * * * * * * * * * * * * * * * * * * * * * * * * * * * //

dimensions      [0 0 0 1 0 0 0];

internalField   nonuniform List<scalar> 
200
(
273.362
273.273
273.204
273.151
273.111
273.08
273.056
273.037
273.021
273.004
273.496
273.381
273.291
273.221
273.166
273.123
273.09
273.064
273.042
273.02
273.58
273.451
273.348
273.268
273.204
273.154
273.115
273.084
273.059
273.033
273.646
273.506
273.395
273.306
273.236
273.181
273.138
273.103
273.075
273.045
273.7
273.553
273.435
273.34
273.265
273.205
273.158
273.12
273.089
273.055
273.744
273.591
273.468
273.368
273.289
273.226
273.175
273.135
273.101
273.065
273.779
273.622
273.494
273.391
273.309
273.243
273.19
273.148
273.111
273.072
273.804
273.645
273.514
273.409
273.324
273.256
273.201
273.157
273.119
273.078
273.821
273.66
273.528
273.421
273.334
273.264
273.209
273.163
273.125
273.082
273.83
273.667
273.535
273.426
273.339
273.269
273.212
273.167
273.127
273.084
273.83
273.667
273.535
273.426
273.339
273.269
273.212
273.167
273.127
273.084
273.821
273.66
273.528
273.421
273.334
273.264
273.209
273.163
273.125
273.082
273.804
273.645
273.514
273.409
273.324
273.256
273.201
273.157
273.119
273.078
273.779
273.622
273.494
273.391
273.309
273.243
273.19
273.148
273.111
273.072
273.744
273.591
273.468
273.368
273.289
273.226
273.175
273.135
273.101
273.065
273.7
273.553
273.435
273.34
273.265
273.205
273.158
273.12
273.089
273.055
273.646
273.506
273.395
273.306
273.236
273.181
273.138
273.103
273.075
273.045
273.58
273.451
273.348
273.268
273.204
273.154
273.115
273.084
273.059
273.033
273.496
273.381
273.291
273.221
273.166
273.123
273.09
273.064
273.042
273.02
273.362
273.273
273.204
273.151
273.111
273.08
273.056
273.037
273.021
273.004
)
;

boundaryField
{
    leftWall
    {
        type            fixedValue;
        value           nonuniform List<scalar> 0();
    }
    rightWall
    {
        type            fixedValue;
        value           uniform 273;
    }
    topWall
    {
        type            fixedValue;
        value           uniform 273;
    }
    bottomWall
    {
        type            fixedValue;
        value           uniform 273;
    }
    frontAndBackPlanes
    {
        type            empty;
    }
    procBoundary0to1
    {
        type            processor;
        value           nonuniform List<scalar> 
20
(
273.478
273.643
273.743
273.82
273.883
273.932
273.971
273.999
274.018
274.027
274.027
274.018
273.999
273.971
273.932
273.883
273.82
273.743
273.643
273.478
)
;
    }
}


// ************************************************************************* //
