/*--------------------------------*- C++ -*----------------------------------*\
| =========                 |                                                 |
| \\      /  F ield         | OpenFOAM: The Open Source CFD Toolbox           |
|  \\    /   O peration     | Version:  2506                                  |
|   \\  /    A nd           | Website:  www.openfoam.com                      |
|    \\/     M anipulation  |                                                 |
\*---------------------------------------------------------------------------*/
FoamFile
{
    version     2.0;
    format      ascii;
    arch        "LSB;label=32;scalar=64";
    class       volVectorField;
    location    "1.9290251";
    object      U;
}
// * * * * * * * * * * * * * * * * * * * * * * * * * * * * * * * * * * * * * //

dimensions      [0 1 -1 0 0 0 0];

internalField   nonuniform List<vector> 
200
(
(2.29729e-05 -2.31376e-05 0)
(2.26227e-05 -2.03751e-05 0)
(2.20257e-05 -1.8088e-05 0)
(2.12304e-05 -1.62684e-05 0)
(2.02751e-05 -1.49346e-05 0)
(1.92128e-05 -1.41191e-05 0)
(1.80273e-05 -1.38215e-05 0)
(1.64142e-05 -1.46934e-05 0)
(1.48719e-05 -2.1918e-05 0)
(4.41456e-05 -4.46518e-05 0)
(1.88741e-05 -1.10305e-05 0)
(1.93846e-05 -9.54663e-06 0)
(1.96109e-05 -8.33682e-06 0)
(1.96073e-05 -7.38867e-06 0)
(1.94291e-05 -6.70847e-06 0)
(1.91462e-05 -6.3233e-06 0)
(1.87905e-05 -6.34738e-06 0)
(1.82111e-05 -7.35836e-06 0)
(1.80925e-05 -1.07542e-05 0)
(2.94202e-05 -1.34884e-05 0)
(1.52797e-05 -9.06386e-06 0)
(1.63343e-05 -7.7504e-06 0)
(1.71087e-05 -6.70399e-06 0)
(1.76426e-05 -5.91063e-06 0)
(1.79805e-05 -5.37572e-06 0)
(1.81638e-05 -5.13186e-06 0)
(1.81505e-05 -5.29929e-06 0)
(1.77611e-05 -6.28106e-06 0)
(1.75502e-05 -8.65092e-06 0)
(2.6224e-05 -1.0733e-05 0)
(1.24701e-05 -7.7937e-06 0)
(1.38785e-05 -6.59482e-06 0)
(1.50231e-05 -5.657e-06 0)
(1.59256e-05 -4.96607e-06 0)
(1.66143e-05 -4.52418e-06 0)
(1.71056e-05 -4.35684e-06 0)
(1.73192e-05 -4.55016e-06 0)
(1.70984e-05 -5.32778e-06 0)
(1.71616e-05 -6.90721e-06 0)
(2.64323e-05 -8.20487e-06 0)
(1.0199e-05 -6.56245e-06 0)
(1.18454e-05 -5.50951e-06 0)
(1.32461e-05 -4.69653e-06 0)
(1.44066e-05 -4.11054e-06 0)
(1.53401e-05 -3.7501e-06 0)
(1.60469e-05 -3.62908e-06 0)
(1.64367e-05 -3.79342e-06 0)
(1.63882e-05 -4.34063e-06 0)
(1.67188e-05 -5.31282e-06 0)
(2.64566e-05 -6.02352e-06 0)
(8.36268e-06 -5.34402e-06 0)
(1.01693e-05 -4.46247e-06 0)
(1.1746e-05 -3.78772e-06 0)
(1.30857e-05 -3.30859e-06 0)
(1.41898e-05 -3.02067e-06 0)
(1.50492e-05 -2.92762e-06 0)
(1.55746e-05 -3.04654e-06 0)
(1.56754e-05 -3.4084e-06 0)
(1.62176e-05 -3.99211e-06 0)
(2.62006e-05 -4.36363e-06 0)
(6.92113e-06 -4.1538e-06 0)
(8.83325e-06 -3.45682e-06 0)
(1.05283e-05 -2.92619e-06 0)
(1.19898e-05 -2.55267e-06 0)
(1.32115e-05 -2.33031e-06 0)
(1.41796e-05 -2.25627e-06 0)
(1.48103e-05 -2.33161e-06 0)
(1.50374e-05 -2.55755e-06 0)
(1.57487e-05 -2.89901e-06 0)
(2.58712e-05 -3.09142e-06 0)
(5.85438e-06 -2.97256e-06 0)
(7.83321e-06 -2.4688e-06 0)
(9.6046e-06 -2.08639e-06 0)
(1.11461e-05 -1.81833e-06 0)
(1.24466e-05 -1.65882e-06 0)
(1.34906e-05 -1.60258e-06 0)
(1.42009e-05 -1.64426e-06 0)
(1.45283e-05 -1.77532e-06 0)
(1.5368e-05 -1.96544e-06 0)
(2.55638e-05 -2.06176e-06 0)
(5.14971e-06 -1.78741e-06 0)
(7.16735e-06 -1.48283e-06 0)
(8.98404e-06 -1.25196e-06 0)
(1.05738e-05 -1.09038e-06 0)
(1.19229e-05 -9.93936e-07 0)
(1.30158e-05 -9.58156e-07 0)
(1.378e-05 -9.7758e-07 0)
(1.4177e-05 -1.04405e-06 0)
(1.51021e-05 -1.13831e-06 0)
(2.53312e-05 -1.18203e-06 0)
(4.79927e-06 -5.96575e-07 0)
(6.83466e-06 -4.94671e-07 0)
(8.6724e-06 -4.17467e-07 0)
(1.02849e-05 -3.63458e-07 0)
(1.16573e-05 -3.31144e-07 0)
(1.27741e-05 -3.18812e-07 0)
(1.35656e-05 -3.24293e-07 0)
(1.39981e-05 -3.44432e-07 0)
(1.49658e-05 -3.72721e-07 0)
(2.52068e-05 -3.85161e-07 0)
(4.79927e-06 5.96625e-07 0)
(6.83466e-06 4.9472e-07 0)
(8.6724e-06 4.17515e-07 0)
(1.02849e-05 3.63503e-07 0)
(1.16573e-05 3.31187e-07 0)
(1.27741e-05 3.18852e-07 0)
(1.35656e-05 3.24332e-07 0)
(1.39981e-05 3.44469e-07 0)
(1.49658e-05 3.72758e-07 0)
(2.52068e-05 3.85195e-07 0)
(5.14971e-06 1.78746e-06 0)
(7.16734e-06 1.48288e-06 0)
(8.98404e-06 1.252e-06 0)
(1.05738e-05 1.09042e-06 0)
(1.19229e-05 9.93978e-07 0)
(1.30158e-05 9.58195e-07 0)
(1.378e-05 9.77617e-07 0)
(1.4177e-05 1.04408e-06 0)
(1.51021e-05 1.13835e-06 0)
(2.53312e-05 1.18206e-06 0)
(5.85438e-06 2.97261e-06 0)
(7.8332e-06 2.46885e-06 0)
(9.6046e-06 2.08644e-06 0)
(1.11461e-05 1.81837e-06 0)
(1.24466e-05 1.65886e-06 0)
(1.34906e-05 1.60261e-06 0)
(1.42009e-05 1.6443e-06 0)
(1.45283e-05 1.77535e-06 0)
(1.5368e-05 1.96547e-06 0)
(2.55638e-05 2.06179e-06 0)
(6.92113e-06 4.15384e-06 0)
(8.83325e-06 3.45687e-06 0)
(1.05283e-05 2.92623e-06 0)
(1.19898e-05 2.55271e-06 0)
(1.32115e-05 2.33034e-06 0)
(1.41796e-05 2.2563e-06 0)
(1.48103e-05 2.33164e-06 0)
(1.50373e-05 2.55758e-06 0)
(1.57487e-05 2.89904e-06 0)
(2.58712e-05 3.09145e-06 0)
(8.36268e-06 5.34407e-06 0)
(1.01693e-05 4.46251e-06 0)
(1.1746e-05 3.78776e-06 0)
(1.30857e-05 3.30863e-06 0)
(1.41898e-05 3.02071e-06 0)
(1.50492e-05 2.92765e-06 0)
(1.55746e-05 3.04656e-06 0)
(1.56754e-05 3.40843e-06 0)
(1.62175e-05 3.99213e-06 0)
(2.62006e-05 4.36365e-06 0)
(1.0199e-05 6.56249e-06 0)
(1.18454e-05 5.50955e-06 0)
(1.32461e-05 4.69656e-06 0)
(1.44066e-05 4.11057e-06 0)
(1.53401e-05 3.75013e-06 0)
(1.60469e-05 3.62911e-06 0)
(1.64367e-05 3.79345e-06 0)
(1.63882e-05 4.34066e-06 0)
(1.67188e-05 5.31284e-06 0)
(2.64566e-05 6.02353e-06 0)
(1.24701e-05 7.79374e-06 0)
(1.38785e-05 6.59485e-06 0)
(1.50231e-05 5.65703e-06 0)
(1.59256e-05 4.9661e-06 0)
(1.66143e-05 4.52421e-06 0)
(1.71056e-05 4.35686e-06 0)
(1.73192e-05 4.55018e-06 0)
(1.70983e-05 5.3278e-06 0)
(1.71616e-05 6.90722e-06 0)
(2.64323e-05 8.20487e-06 0)
(1.52797e-05 9.06389e-06 0)
(1.63343e-05 7.75043e-06 0)
(1.71087e-05 6.70402e-06 0)
(1.76426e-05 5.91066e-06 0)
(1.79804e-05 5.37575e-06 0)
(1.81638e-05 5.13187e-06 0)
(1.81505e-05 5.2993e-06 0)
(1.7761e-05 6.28107e-06 0)
(1.75502e-05 8.65093e-06 0)
(2.62239e-05 1.0733e-05 0)
(1.88741e-05 1.10305e-05 0)
(1.93846e-05 9.54666e-06 0)
(1.96109e-05 8.33684e-06 0)
(1.96073e-05 7.38869e-06 0)
(1.94291e-05 6.70849e-06 0)
(1.91462e-05 6.32332e-06 0)
(1.87905e-05 6.34739e-06 0)
(1.82111e-05 7.35837e-06 0)
(1.80925e-05 1.07542e-05 0)
(2.94202e-05 1.34884e-05 0)
(2.29729e-05 2.31376e-05 0)
(2.26227e-05 2.03751e-05 0)
(2.20257e-05 1.8088e-05 0)
(2.12304e-05 1.62685e-05 0)
(2.02751e-05 1.49346e-05 0)
(1.92127e-05 1.41191e-05 0)
(1.80273e-05 1.38215e-05 0)
(1.64142e-05 1.46934e-05 0)
(1.48719e-05 2.1918e-05 0)
(4.41455e-05 4.46517e-05 0)
)
;

boundaryField
{
    leftWall
    {
        type            noSlip;
    }
    rightWall
    {
        type            noSlip;
    }
    topWall
    {
        type            noSlip;
    }
    bottomWall
    {
        type            noSlip;
    }
    frontAndBackPlanes
    {
        type            empty;
    }
    procBoundary0to1
    {
        type            processor;
        value           nonuniform List<vector> 
20
(
(2.30034e-05 -2.63954e-05 0)
(1.80172e-05 -1.28148e-05 0)
(1.39082e-05 -1.06739e-05 0)
(1.07851e-05 -9.281e-06 0)
(8.31287e-06 -7.87748e-06 0)
(6.34588e-06 -6.44906e-06 0)
(4.82111e-06 -5.02914e-06 0)
(3.70355e-06 -3.60583e-06 0)
(2.97029e-06 -2.17042e-06 0)
(2.6071e-06 -7.2474e-07 0)
(2.6071e-06 7.24789e-07 0)
(2.97029e-06 2.17047e-06 0)
(3.70355e-06 3.60587e-06 0)
(4.82111e-06 5.02919e-06 0)
(6.34588e-06 6.44911e-06 0)
(8.31287e-06 7.87753e-06 0)
(1.07851e-05 9.28104e-06 0)
(1.39082e-05 1.0674e-05 0)
(1.80172e-05 1.28148e-05 0)
(2.30034e-05 2.63954e-05 0)
)
;
    }
}


// ************************************************************************* //
