/*--------------------------------*- C++ -*----------------------------------*\
| =========                 |                                                 |
| \\      /  F ield         | OpenFOAM: The Open Source CFD Toolbox           |
|  \\    /   O peration     | Version:  2506                                  |
|   \\  /    A nd           | Website:  www.openfoam.com                      |
|    \\/     M anipulation  |                                                 |
\*---------------------------------------------------------------------------*/
FoamFile
{
    version     2.0;
    format      ascii;
    arch        "LSB;label=32;scalar=64";
    class       volScalarField;
    location    "0.989945";
    object      alphat;
}
// * * * * * * * * * * * * * * * * * * * * * * * * * * * * * * * * * * * * * //

dimensions      [1 -1 -1 0 0 0 0];

internalField   nonuniform List<scalar> 
200
(
0.131622
0.234686
0.280465
0.308248
0.327642
0.34182
0.352165
0.35941
0.364007
0.366236
0.234367
2.02522
2.85251
3.28865
3.56043
3.74269
3.86743
3.95099
4.00251
4.02713
0.280005
2.85105
4.50009
5.45846
6.06492
6.46858
6.7415
6.92222
7.03268
7.08517
0.307706
3.28622
5.45706
6.81037
7.69438
8.29016
8.69455
8.96247
9.12613
9.20387
0.327044
3.55736
6.06244
7.69312
8.78652
9.5344
10.0462
10.3867
10.5952
10.6944
0.341183
3.73916
6.46527
8.28788
9.53329
10.3961
10.9914
11.3896
11.6343
11.7509
0.351499
3.86357
6.73757
8.69146
10.0441
10.9904
11.6479
12.09
12.3624
12.4925
0.358724
3.94689
6.91782
8.95875
10.384
11.3879
12.0891
12.5624
12.855
12.9948
0.363306
3.99825
7.02794
9.12195
10.5919
11.632
12.361
12.8543
13.1597
13.3059
0.365526
4.02276
7.08021
9.19935
10.6907
11.7481
12.4905
12.9936
13.3054
13.4547
0.365526
4.02276
7.08021
9.19935
10.6907
11.7481
12.4905
12.9936
13.3054
13.4547
0.363306
3.99825
7.02794
9.12195
10.5919
11.632
12.361
12.8543
13.1597
13.3059
0.358724
3.94689
6.91782
8.95875
10.384
11.3879
12.0891
12.5624
12.855
12.9948
0.351499
3.86357
6.73757
8.69146
10.0441
10.9904
11.6479
12.09
12.3624
12.4925
0.341183
3.73916
6.46527
8.28788
9.53329
10.3961
10.9914
11.3896
11.6343
11.7509
0.327044
3.55736
6.06244
7.69312
8.78652
9.5344
10.0462
10.3867
10.5952
10.6944
0.307706
3.28622
5.45706
6.81037
7.69438
8.29016
8.69455
8.96247
9.12613
9.20387
0.280005
2.85105
4.50009
5.45846
6.06492
6.46858
6.7415
6.92222
7.03268
7.08517
0.234367
2.02522
2.85251
3.28865
3.56043
3.74269
3.86743
3.95099
4.00251
4.02713
0.131622
0.234686
0.280465
0.308248
0.327642
0.34182
0.352165
0.35941
0.364007
0.366236
)
;

boundaryField
{
    leftWall
    {
        type            compressible::alphatWallFunction;
        value           nonuniform List<scalar> 
20
(
0.0266524
0.0410061
0.0469248
0.05014
0.0521354
0.0534345
0.0542863
0.0548311
0.0551534
0.0553031
0.0553031
0.0551534
0.0548311
0.0542863
0.0534345
0.0521354
0.05014
0.0469248
0.0410061
0.0266524
)
;
    }
    rightWall
    {
        type            compressible::alphatWallFunction;
        value           nonuniform List<scalar> 0();
    }
    topWall
    {
        type            compressible::alphatWallFunction;
        value           nonuniform List<scalar> 10(0.0318706 0.0493748 0.0565628 0.0604612 0.062878 0.0644506 0.0654814 0.0661404 0.0665304 0.0667113);
    }
    bottomWall
    {
        type            compressible::alphatWallFunction;
        value           nonuniform List<scalar> 10(0.0318706 0.0493748 0.0565628 0.0604612 0.062878 0.0644506 0.0654814 0.0661404 0.0665304 0.0667113);
    }
    frontAndBackPlanes
    {
        type            empty;
    }
    procBoundary1to0
    {
        type            processor;
        value           nonuniform List<scalar> 
20
(
0.36624
4.02719
7.08531
9.20408
10.6947
11.7512
12.4928
12.9952
13.3063
13.4551
13.4551
13.3063
12.9952
12.4929
11.7512
10.6947
9.20408
7.08531
4.02719
0.36624
)
;
    }
}


// ************************************************************************* //
