/*--------------------------------*- C++ -*----------------------------------*\
| =========                 |                                                 |
| \\      /  F ield         | OpenFOAM: The Open Source CFD Toolbox           |
|  \\    /   O peration     | Version:  2506                                  |
|   \\  /    A nd           | Website:  www.openfoam.com                      |
|    \\/     M anipulation  |                                                 |
\*---------------------------------------------------------------------------*/
FoamFile
{
    version     2.0;
    format      ascii;
    arch        "LSB;label=32;scalar=64";
    class       surfaceScalarField;
    location    "0.989945";
    object      phi;
}
// * * * * * * * * * * * * * * * * * * * * * * * * * * * * * * * * * * * * * //

dimensions      [1 0 -1 0 0 0 0];

oriented        oriented;

internalField   nonuniform List<scalar> 
370
(
-9.93925e-06
-1.42993e-05
-2.34174e-06
-8.7809e-06
6.15214e-07
-6.36322e-06
2.22097e-06
-5.56835e-06
3.09485e-06
-4.81635e-06
3.52297e-06
-4.15596e-06
3.68065e-06
-3.59948e-06
3.67426e-06
-3.12978e-06
3.56832e-06
-2.73167e-06
-2.39312e-06
-3.74422e-06
-1.01361e-05
-2.33694e-06
-8.43977e-06
-5.51518e-07
-6.60254e-06
7.08396e-07
-5.49567e-06
1.62231e-06
-4.61268e-06
2.25885e-06
-3.88075e-06
2.66773e-06
-3.28408e-06
2.89929e-06
-2.8002e-06
2.99793e-06
-2.40546e-06
-2.08055e-06
-1.93809e-06
-8.27715e-06
-1.62943e-06
-7.1609e-06
-8.16123e-07
-5.93294e-06
2.4106e-08
-4.99556e-06
7.85761e-07
-4.20478e-06
1.41956e-06
-3.52717e-06
1.90503e-06
-2.96094e-06
2.24567e-06
-2.49687e-06
2.4592e-06
-2.11899e-06
-1.81102e-06
-2.14256e-06
-6.84815e-06
-1.76777e-06
-6.0428e-06
-1.14846e-06
-5.11512e-06
-4.47816e-07
-4.3589e-06
2.43116e-07
-3.69769e-06
8.65287e-07
-3.11356e-06
1.3825e-06
-2.61126e-06
1.78079e-06
-2.19077e-06
2.0634e-06
-1.84444e-06
-1.5615e-06
-2.40833e-06
-5.51875e-06
-2.03637e-06
-4.97692e-06
-1.46181e-06
-4.27901e-06
-8.02752e-07
-3.68023e-06
-1.37287e-07
-3.14317e-06
4.80632e-07
-2.65883e-06
1.01468e-06
-2.23323e-06
1.4462e-06
-1.87004e-06
1.772e-06
-1.5668e-06
-1.31732e-06
-2.59766e-06
-4.28485e-06
-2.23454e-06
-3.93379e-06
-1.68634e-06
-3.42895e-06
-1.04978e-06
-2.97395e-06
-3.98237e-07
-2.5551e-06
2.16495e-07
-2.1708e-06
7.59058e-07
-1.82741e-06
1.20961e-06
-1.52979e-06
1.56214e-06
-1.27823e-06
-1.06965e-06
-2.74441e-06
-3.13787e-06
-2.37062e-06
-2.91908e-06
-1.83354e-06
-2.57164e-06
-1.21034e-06
-2.24641e-06
-5.68323e-07
-1.93995e-06
4.27454e-08
-1.65446e-06
5.88611e-07
-1.39598e-06
1.04933e-06
-1.1692e-06
1.41763e-06
-9.7559e-07
-8.13927e-07
-2.85276e-06
-2.05613e-06
-2.46262e-06
-1.93037e-06
-1.92619e-06
-1.71326e-06
-1.30906e-06
-1.50459e-06
-6.72884e-07
-1.30446e-06
-6.50327e-08
-1.1158e-06
4.81482e-07
-9.43303e-07
9.47105e-07
-7.90627e-07
1.32412e-06
-6.59311e-07
-5.4907e-07
-2.92316e-06
-1.01737e-06
-2.51923e-06
-9.60327e-07
-1.97989e-06
-8.56068e-07
-1.3647e-06
-7.54265e-07
-7.31577e-07
-6.55553e-07
-1.25958e-07
-5.61797e-07
4.20233e-07
-4.75552e-07
8.87922e-07
-3.98807e-07
1.26933e-06
-3.32501e-07
-2.76647e-07
-2.95769e-06
1.57801e-12
-2.54607e-06
1.7103e-12
-2.00433e-06
1.7926e-12
-1.38948e-06
1.95736e-12
-7.57607e-07
2.18635e-12
-1.53102e-07
2.45969e-12
3.92724e-07
2.75525e-12
8.61103e-07
3.04513e-12
1.24429e-06
3.27184e-12
3.34345e-12
-2.95769e-06
1.01738e-06
-2.54607e-06
9.60331e-07
-2.00433e-06
8.56072e-07
-1.38947e-06
7.54269e-07
-7.57606e-07
6.55557e-07
-1.53101e-07
5.61802e-07
3.92724e-07
4.75557e-07
8.61104e-07
3.98813e-07
1.24429e-06
3.32507e-07
2.76654e-07
-2.92316e-06
2.05613e-06
-2.51923e-06
1.93038e-06
-1.97989e-06
1.71326e-06
-1.36469e-06
1.5046e-06
-7.31576e-07
1.30447e-06
-1.25957e-07
1.11581e-06
4.20234e-07
9.43308e-07
8.87923e-07
7.90632e-07
1.26933e-06
6.59317e-07
5.49077e-07
-2.85276e-06
3.13787e-06
-2.46262e-06
2.91908e-06
-1.92619e-06
2.57164e-06
-1.30906e-06
2.24641e-06
-6.72882e-07
1.93996e-06
-6.50308e-08
1.65447e-06
4.81484e-07
1.39598e-06
9.47107e-07
1.16921e-06
1.32412e-06
9.75595e-07
8.13932e-07
-2.7444e-06
4.28485e-06
-2.37062e-06
3.93379e-06
-1.83353e-06
3.42895e-06
-1.21034e-06
2.97395e-06
-5.6832e-07
2.5551e-06
4.27477e-08
2.1708e-06
5.88614e-07
1.82742e-06
1.04933e-06
1.5298e-06
1.41763e-06
1.27824e-06
1.06966e-06
-2.59766e-06
5.51875e-06
-2.23454e-06
4.97692e-06
-1.68634e-06
4.27901e-06
-1.04977e-06
3.68023e-06
-3.98234e-07
3.14317e-06
2.16498e-07
2.65883e-06
7.59061e-07
2.23323e-06
1.20962e-06
1.87004e-06
1.56214e-06
1.56681e-06
1.31733e-06
-2.40833e-06
6.84815e-06
-2.03636e-06
6.0428e-06
-1.46181e-06
5.11512e-06
-8.02749e-07
4.3589e-06
-1.37284e-07
3.69769e-06
4.80635e-07
3.11356e-06
1.01468e-06
2.61126e-06
1.4462e-06
2.19077e-06
1.77201e-06
1.84444e-06
1.5615e-06
-2.14256e-06
8.27715e-06
-1.76777e-06
7.1609e-06
-1.14846e-06
5.93294e-06
-4.47813e-07
4.99556e-06
2.43119e-07
4.20479e-06
8.6529e-07
3.52717e-06
1.3825e-06
2.96094e-06
1.78079e-06
2.49687e-06
2.0634e-06
2.11899e-06
1.81102e-06
-1.93808e-06
1.01361e-05
-1.62943e-06
8.43976e-06
-8.16121e-07
6.60254e-06
2.41089e-08
5.49567e-06
7.85764e-07
4.61268e-06
1.41957e-06
3.88075e-06
1.90503e-06
3.28408e-06
2.24567e-06
2.8002e-06
2.4592e-06
2.40546e-06
2.08055e-06
-3.74421e-06
1.42993e-05
-2.33694e-06
8.7809e-06
-5.51515e-07
6.36322e-06
7.08399e-07
5.56835e-06
1.62231e-06
4.81635e-06
2.25886e-06
4.15595e-06
2.66773e-06
3.59948e-06
2.89929e-06
3.12978e-06
2.99793e-06
2.73167e-06
2.39312e-06
-9.93925e-06
-2.34174e-06
6.15216e-07
2.22097e-06
3.09486e-06
3.52297e-06
3.68065e-06
3.67426e-06
3.56832e-06
)
;

boundaryField
{
    leftWall
    {
        type            calculated;
        value           nonuniform List<scalar> 
20
(
1.30293e-05
1.38723e-06
1.64559e-06
2.16024e-06
2.45048e-06
2.67891e-06
2.86822e-06
3.00848e-06
3.09961e-06
3.14442e-06
3.14442e-06
3.09961e-06
3.00848e-06
2.86822e-06
2.67891e-06
2.45047e-06
2.16024e-06
1.64558e-06
1.38723e-06
1.30293e-05
)
;
    }
    rightWall
    {
        type            calculated;
        value           nonuniform List<scalar> 0();
    }
    topWall
    {
        type            calculated;
        value           nonuniform List<scalar> 10(1.34022e-05 3.23926e-06 4.9914e-06 5.20532e-06 4.91282e-06 4.47295e-06 4.00256e-06 3.54983e-06 3.13706e-06 2.771e-06);
    }
    bottomWall
    {
        type            calculated;
        value           nonuniform List<scalar> 10(1.34022e-05 3.23926e-06 4.9914e-06 5.20531e-06 4.91282e-06 4.47294e-06 4.00256e-06 3.54982e-06 3.13706e-06 2.771e-06);
    }
    frontAndBackPlanes
    {
        type            empty;
    }
    procBoundary1to0
    {
        type            processor;
        value           nonuniform List<scalar> 
20
(
3.4035e-06
3.00032e-06
2.56903e-06
2.24397e-06
1.99989e-06
1.82106e-06
1.69605e-06
1.61409e-06
1.56554e-06
1.5432e-06
1.5432e-06
1.56554e-06
1.61409e-06
1.69605e-06
1.82107e-06
1.9999e-06
2.24397e-06
2.56904e-06
3.00033e-06
3.40351e-06
)
;
    }
}


// ************************************************************************* //
