/*--------------------------------*- C++ -*----------------------------------*\
| =========                 |                                                 |
| \\      /  F ield         | OpenFOAM: The Open Source CFD Toolbox           |
|  \\    /   O peration     | Version:  2506                                  |
|   \\  /    A nd           | Website:  www.openfoam.com                      |
|    \\/     M anipulation  |                                                 |
\*---------------------------------------------------------------------------*/
FoamFile
{
    version     2.0;
    format      ascii;
    arch        "LSB;label=32;scalar=64";
    class       volScalarField;
    location    "0.989945";
    object      rho;
}
// * * * * * * * * * * * * * * * * * * * * * * * * * * * * * * * * * * * * * //

dimensions      [1 -3 0 0 0 0 0];

internalField   nonuniform List<scalar> 
200
(
998.009
1000.31
1000.8
1001.01
1001.13
1001.21
1001.26
1001.29
1001.32
1001.33
998.728
1000.15
1000.62
1000.87
1001.03
1001.14
1001.21
1001.26
1001.29
1001.31
998.935
1000.14
1000.57
1000.82
1000.98
1001.1
1001.18
1001.23
1001.27
1001.3
999.008
1000.14
1000.55
1000.79
1000.95
1001.07
1001.15
1001.21
1001.26
1001.29
999.043
1000.14
1000.53
1000.77
1000.93
1001.05
1001.14
1001.2
1001.25
1001.28
999.063
1000.14
1000.52
1000.76
1000.92
1001.04
1001.12
1001.19
1001.24
1001.27
999.075
1000.14
1000.52
1000.75
1000.91
1001.03
1001.12
1001.18
1001.23
1001.27
999.083
1000.14
1000.52
1000.74
1000.9
1001.02
1001.11
1001.18
1001.23
1001.26
999.087
1000.14
1000.51
1000.74
1000.9
1001.02
1001.11
1001.17
1001.22
1001.26
999.089
1000.14
1000.51
1000.74
1000.9
1001.01
1001.1
1001.17
1001.22
1001.26
999.089
1000.14
1000.51
1000.74
1000.9
1001.01
1001.1
1001.17
1001.22
1001.26
999.087
1000.14
1000.51
1000.74
1000.9
1001.02
1001.11
1001.17
1001.22
1001.26
999.083
1000.14
1000.52
1000.74
1000.9
1001.02
1001.11
1001.18
1001.23
1001.26
999.075
1000.14
1000.52
1000.75
1000.91
1001.03
1001.12
1001.18
1001.23
1001.27
999.063
1000.14
1000.52
1000.76
1000.92
1001.04
1001.12
1001.19
1001.24
1001.27
999.043
1000.14
1000.53
1000.77
1000.93
1001.05
1001.14
1001.2
1001.25
1001.28
999.008
1000.14
1000.55
1000.79
1000.95
1001.07
1001.15
1001.21
1001.26
1001.29
998.935
1000.14
1000.57
1000.82
1000.98
1001.1
1001.18
1001.23
1001.27
1001.3
998.728
1000.15
1000.62
1000.87
1001.03
1001.14
1001.21
1001.26
1001.29
1001.31
998.009
1000.31
1000.8
1001.01
1001.13
1001.21
1001.26
1001.29
1001.32
1001.33
)
;

boundaryField
{
    leftWall
    {
        type            calculated;
        value           uniform 973.493;
    }
    rightWall
    {
        type            calculated;
        value           nonuniform List<scalar> 0();
    }
    topWall
    {
        type            calculated;
        value           uniform 1001.36;
    }
    bottomWall
    {
        type            calculated;
        value           uniform 1001.36;
    }
    frontAndBackPlanes
    {
        type            empty;
    }
    procBoundary1to0
    {
        type            processor;
        value           nonuniform List<scalar> 
20
(
1001.34
1001.33
1001.32
1001.31
1001.3
1001.3
1001.3
1001.29
1001.29
1001.29
1001.29
1001.29
1001.29
1001.3
1001.3
1001.3
1001.31
1001.32
1001.33
1001.34
)
;
    }
}


// ************************************************************************* //
