/*--------------------------------*- C++ -*----------------------------------*\
| =========                 |                                                 |
| \\      /  F ield         | OpenFOAM: The Open Source CFD Toolbox           |
|  \\    /   O peration     | Version:  2506                                  |
|   \\  /    A nd           | Website:  www.openfoam.com                      |
|    \\/     M anipulation  |                                                 |
\*---------------------------------------------------------------------------*/
FoamFile
{
    version     2.0;
    format      ascii;
    arch        "LSB;label=32;scalar=64";
    class       volScalarField;
    location    "0.989945";
    object      T;
}
// * * * * * * * * * * * * * * * * * * * * * * * * * * * * * * * * * * * * * //

dimensions      [0 0 0 1 0 0 0];

internalField   nonuniform List<scalar> 
200
(
286.42
277.251
275.27
274.424
273.933
273.619
273.411
273.273
273.181
273.119
283.577
277.884
275.994
274.97
274.331
273.909
273.622
273.424
273.288
273.195
282.753
277.931
276.204
275.195
274.529
274.07
273.747
273.52
273.359
273.247
282.462
277.931
276.298
275.32
274.654
274.18
273.838
273.592
273.415
273.289
282.324
277.93
276.351
275.398
274.737
274.258
273.907
273.649
273.46
273.324
282.245
277.931
276.384
275.448
274.794
274.314
273.957
273.692
273.496
273.352
282.196
277.932
276.405
275.482
274.833
274.353
273.994
273.724
273.523
273.374
282.166
277.934
276.419
275.503
274.858
274.38
274.019
273.747
273.542
273.389
282.148
277.935
276.428
275.516
274.874
274.396
274.035
273.761
273.554
273.4
282.139
277.935
276.432
275.522
274.881
274.404
274.042
273.768
273.56
273.405
282.139
277.935
276.432
275.522
274.881
274.404
274.042
273.768
273.56
273.405
282.148
277.935
276.428
275.516
274.874
274.396
274.035
273.761
273.554
273.4
282.166
277.934
276.419
275.503
274.858
274.38
274.019
273.747
273.542
273.389
282.196
277.932
276.405
275.482
274.833
274.353
273.994
273.724
273.523
273.374
282.245
277.931
276.384
275.448
274.794
274.314
273.957
273.692
273.496
273.352
282.324
277.93
276.351
275.398
274.737
274.258
273.907
273.649
273.46
273.324
282.462
277.931
276.298
275.32
274.654
274.18
273.838
273.592
273.415
273.289
282.753
277.931
276.204
275.195
274.529
274.07
273.747
273.52
273.359
273.247
283.577
277.884
275.994
274.97
274.331
273.909
273.622
273.424
273.288
273.195
286.42
277.251
275.27
274.424
273.933
273.619
273.411
273.273
273.181
273.119
)
;

boundaryField
{
    leftWall
    {
        type            fixedValue;
        value           uniform 373;
    }
    rightWall
    {
        type            fixedValue;
        value           nonuniform List<scalar> 0();
    }
    topWall
    {
        type            fixedValue;
        value           uniform 273;
    }
    bottomWall
    {
        type            fixedValue;
        value           uniform 273;
    }
    frontAndBackPlanes
    {
        type            empty;
    }
    procBoundary1to0
    {
        type            processor;
        value           nonuniform List<scalar> 
20
(
273.078
273.131
273.168
273.199
273.226
273.248
273.265
273.277
273.285
273.289
273.289
273.285
273.277
273.265
273.248
273.226
273.199
273.168
273.131
273.078
)
;
    }
}


// ************************************************************************* //
