/*--------------------------------*- C++ -*----------------------------------*\
| =========                 |                                                 |
| \\      /  F ield         | OpenFOAM: The Open Source CFD Toolbox           |
|  \\    /   O peration     | Version:  2506                                  |
|   \\  /    A nd           | Website:  www.openfoam.com                      |
|    \\/     M anipulation  |                                                 |
\*---------------------------------------------------------------------------*/
FoamFile
{
    version     2.0;
    format      ascii;
    arch        "LSB;label=32;scalar=64";
    class       volVectorField;
    location    "0.989945";
    object      U;
}
// * * * * * * * * * * * * * * * * * * * * * * * * * * * * * * * * * * * * * //

dimensions      [0 1 -1 0 0 0 0];

internalField   nonuniform List<vector> 
200
(
(-0.000262924 -0.000304043 0)
(-8.11688e-06 -0.000121877 0)
(-5.95663e-06 -9.29163e-05 0)
(1.1958e-05 -8.36367e-05 0)
(2.19649e-05 -7.38694e-05 0)
(2.69728e-05 -6.4616e-05 0)
(2.91202e-05 -5.64593e-05 0)
(2.96065e-05 -4.93862e-05 0)
(2.90792e-05 -4.32901e-05 0)
(2.79413e-05 -3.80455e-05 0)
(-6.99086e-05 -6.17955e-05 0)
(-1.90419e-05 -6.64816e-05 0)
(-1.00136e-05 -5.36639e-05 0)
(1.13168e-06 -4.56654e-05 0)
(9.86157e-06 -3.86036e-05 0)
(1.59969e-05 -3.26739e-05 0)
(2.00624e-05 -2.78317e-05 0)
(2.25291e-05 -2.38835e-05 0)
(2.37737e-05 -2.06366e-05 0)
(2.41155e-05 -1.79404e-05 0)
(-3.84343e-05 -6.95304e-05 0)
(-1.3817e-05 -6.07601e-05 0)
(-9.50156e-06 -4.95712e-05 0)
(-2.98248e-06 -4.14642e-05 0)
(3.46592e-06 -3.48024e-05 0)
(9.10618e-06 -2.9186e-05 0)
(1.35798e-05 -2.4549e-05 0)
(1.68503e-05 -2.07755e-05 0)
(1.90208e-05 -1.77103e-05 0)
(2.02648e-05 -1.52087e-05 0)
(-4.09718e-05 -6.07757e-05 0)
(-1.5422e-05 -5.29821e-05 0)
(-1.13913e-05 -4.41687e-05 0)
(-6.29225e-06 -3.73514e-05 0)
(-7.31921e-07 -3.15513e-05 0)
(4.61599e-06 -2.65065e-05 0)
(9.21521e-06 -2.22237e-05 0)
(1.28757e-05 -1.86743e-05 0)
(1.55747e-05 -1.57696e-05 0)
(1.73909e-05 -1.34026e-05 0)
(-4.47466e-05 -4.94734e-05 0)
(-1.76249e-05 -4.41206e-05 0)
(-1.36481e-05 -3.76413e-05 0)
(-8.98505e-06 -3.22347e-05 0)
(-3.72515e-06 -2.74451e-05 0)
(1.50851e-06 -2.31637e-05 0)
(6.17078e-06 -1.94362e-05 0)
(1.00449e-05 -1.62823e-05 0)
(1.3062e-05 -1.3666e-05 0)
(1.525e-05 -1.15216e-05 0)
(-4.76169e-05 -3.90523e-05 0)
(-1.91913e-05 -3.55613e-05 0)
(-1.5319e-05 -3.08301e-05 0)
(-1.08803e-05 -2.66503e-05 0)
(-5.77944e-06 -2.28397e-05 0)
(-6.15584e-07 -1.93669e-05 0)
(4.07069e-06 -1.6285e-05 0)
(8.06046e-06 -1.3631e-05 0)
(1.12673e-05 -1.13994e-05 0)
(1.36925e-05 -9.55573e-06 0)
(-4.99643e-05 -2.95728e-05 0)
(-2.0284e-05 -2.73406e-05 0)
(-1.64367e-05 -2.39849e-05 0)
(-1.21132e-05 -2.0893e-05 0)
(-7.11284e-06 -1.80058e-05 0)
(-2.00425e-06 -1.5332e-05 0)
(2.68071e-06 -1.29236e-05 0)
(6.72641e-06 -1.08205e-05 0)
(1.00405e-05 -9.03197e-06 0)
(1.26108e-05 -7.54277e-06 0)
(-5.17482e-05 -2.07002e-05 0)
(-2.10398e-05 -1.93488e-05 0)
(-1.71571e-05 -1.71249e-05 0)
(-1.28752e-05 -1.50106e-05 0)
(-7.93012e-06 -1.29959e-05 0)
(-2.86057e-06 -1.11047e-05 0)
(1.81317e-06 -9.38124e-06 0)
(5.88158e-06 -7.86039e-06 0)
(9.25189e-06 -6.55555e-06 0)
(1.19056e-05 -5.46215e-06 0)
(-5.29289e-05 -1.2249e-05 0)
(-2.15136e-05 -1.15322e-05 0)
(-1.75836e-05 -1.02672e-05 0)
(-1.33078e-05 -9.03881e-06 0)
(-8.38831e-06 -7.85129e-06 0)
(-3.34223e-06 -6.72546e-06 0)
(1.32017e-06 -5.69125e-06 0)
(5.39543e-06 -4.77207e-06 0)
(8.7923e-06 -3.97868e-06 0)
(1.14899e-05 -3.31085e-06 0)
(-5.35148e-05 -4.05441e-06 0)
(-2.1741e-05 -3.83075e-06 0)
(-1.77807e-05 -3.42056e-06 0)
(-1.35017e-05 -3.01802e-06 0)
(-8.5914e-06 -2.62594e-06 0)
(-3.55607e-06 -2.25231e-06 0)
(1.09972e-06 -1.90767e-06 0)
(5.17607e-06 -1.60025e-06 0)
(8.58307e-06 -1.33409e-06 0)
(1.12991e-05 -1.10954e-06 0)
(-5.35148e-05 4.05443e-06 0)
(-2.1741e-05 3.83077e-06 0)
(-1.77807e-05 3.42059e-06 0)
(-1.35016e-05 3.01805e-06 0)
(-8.5914e-06 2.62598e-06 0)
(-3.55607e-06 2.25235e-06 0)
(1.09972e-06 1.90771e-06 0)
(5.17607e-06 1.6003e-06 0)
(8.58307e-06 1.33414e-06 0)
(1.12991e-05 1.10959e-06 0)
(-5.29289e-05 1.22491e-05 0)
(-2.15136e-05 1.15322e-05 0)
(-1.75836e-05 1.02672e-05 0)
(-1.33078e-05 9.03884e-06 0)
(-8.3883e-06 7.85133e-06 0)
(-3.34222e-06 6.7255e-06 0)
(1.32018e-06 5.69129e-06 0)
(5.39544e-06 4.77211e-06 0)
(8.79231e-06 3.97873e-06 0)
(1.14899e-05 3.3109e-06 0)
(-5.17481e-05 2.07002e-05 0)
(-2.10398e-05 1.93488e-05 0)
(-1.71571e-05 1.7125e-05 0)
(-1.28752e-05 1.50106e-05 0)
(-7.93011e-06 1.29959e-05 0)
(-2.86055e-06 1.11047e-05 0)
(1.81318e-06 9.38128e-06 0)
(5.8816e-06 7.86043e-06 0)
(9.25191e-06 6.5556e-06 0)
(1.19057e-05 5.4622e-06 0)
(-4.99642e-05 2.95728e-05 0)
(-2.02839e-05 2.73406e-05 0)
(-1.64367e-05 2.39849e-05 0)
(-1.21132e-05 2.0893e-05 0)
(-7.11282e-06 1.80058e-05 0)
(-2.00423e-06 1.53321e-05 0)
(2.68073e-06 1.29237e-05 0)
(6.72643e-06 1.08206e-05 0)
(1.00405e-05 9.03201e-06 0)
(1.26109e-05 7.54281e-06 0)
(-4.76169e-05 3.90523e-05 0)
(-1.91913e-05 3.55613e-05 0)
(-1.53189e-05 3.08301e-05 0)
(-1.08803e-05 2.66503e-05 0)
(-5.77942e-06 2.28397e-05 0)
(-6.15563e-07 1.93669e-05 0)
(4.07071e-06 1.6285e-05 0)
(8.06048e-06 1.3631e-05 0)
(1.12673e-05 1.13995e-05 0)
(1.36926e-05 9.55577e-06 0)
(-4.47466e-05 4.94734e-05 0)
(-1.76249e-05 4.41206e-05 0)
(-1.36481e-05 3.76414e-05 0)
(-8.98503e-06 3.22347e-05 0)
(-3.72513e-06 2.74451e-05 0)
(1.50853e-06 2.31637e-05 0)
(6.17081e-06 1.94362e-05 0)
(1.0045e-05 1.62823e-05 0)
(1.3062e-05 1.3666e-05 0)
(1.525e-05 1.15216e-05 0)
(-4.09718e-05 6.07757e-05 0)
(-1.5422e-05 5.29821e-05 0)
(-1.13912e-05 4.41687e-05 0)
(-6.29223e-06 3.73514e-05 0)
(-7.31897e-07 3.15513e-05 0)
(4.61602e-06 2.65065e-05 0)
(9.21524e-06 2.22237e-05 0)
(1.28757e-05 1.86743e-05 0)
(1.55747e-05 1.57696e-05 0)
(1.7391e-05 1.34026e-05 0)
(-3.84342e-05 6.95304e-05 0)
(-1.3817e-05 6.07601e-05 0)
(-9.50154e-06 4.95712e-05 0)
(-2.98246e-06 4.14642e-05 0)
(3.46594e-06 3.48024e-05 0)
(9.1062e-06 2.9186e-05 0)
(1.35798e-05 2.4549e-05 0)
(1.68503e-05 2.07755e-05 0)
(1.90208e-05 1.77103e-05 0)
(2.02648e-05 1.52087e-05 0)
(-6.99086e-05 6.17955e-05 0)
(-1.90419e-05 6.64816e-05 0)
(-1.00136e-05 5.36639e-05 0)
(1.1317e-06 4.56654e-05 0)
(9.86159e-06 3.86036e-05 0)
(1.5997e-05 3.26739e-05 0)
(2.00624e-05 2.78317e-05 0)
(2.25291e-05 2.38835e-05 0)
(2.37737e-05 2.06366e-05 0)
(2.41155e-05 1.79405e-05 0)
(-0.000262924 0.000304043 0)
(-8.11686e-06 0.000121877 0)
(-5.95661e-06 9.29163e-05 0)
(1.19581e-05 8.36367e-05 0)
(2.19649e-05 7.38694e-05 0)
(2.69728e-05 6.4616e-05 0)
(2.91203e-05 5.64593e-05 0)
(2.96066e-05 4.93862e-05 0)
(2.90792e-05 4.32901e-05 0)
(2.79413e-05 3.80454e-05 0)
)
;

boundaryField
{
    leftWall
    {
        type            noSlip;
    }
    rightWall
    {
        type            noSlip;
    }
    topWall
    {
        type            noSlip;
    }
    bottomWall
    {
        type            noSlip;
    }
    frontAndBackPlanes
    {
        type            empty;
    }
    procBoundary1to0
    {
        type            processor;
        value           nonuniform List<vector> 
20
(
(2.64544e-05 -3.35257e-05 0)
(2.38182e-05 -1.56798e-05 0)
(2.07787e-05 -1.31512e-05 0)
(1.8461e-05 -1.14725e-05 0)
(1.67038e-05 -9.7756e-06 0)
(1.54049e-05 -8.05155e-06 0)
(1.44896e-05 -6.32371e-06 0)
(1.38856e-05 -4.56405e-06 0)
(1.3526e-05 -2.76086e-06 0)
(1.33598e-05 -9.24341e-07 0)
(1.33598e-05 9.24392e-07 0)
(1.3526e-05 2.76091e-06 0)
(1.38856e-05 4.56409e-06 0)
(1.44897e-05 6.32375e-06 0)
(1.54049e-05 8.05159e-06 0)
(1.67039e-05 9.77563e-06 0)
(1.8461e-05 1.14725e-05 0)
(2.07787e-05 1.31512e-05 0)
(2.38182e-05 1.56798e-05 0)
(2.64544e-05 3.35257e-05 0)
)
;
    }
}


// ************************************************************************* //
