/*--------------------------------*- C++ -*----------------------------------*\
| =========                 |                                                 |
| \\      /  F ield         | OpenFOAM: The Open Source CFD Toolbox           |
|  \\    /   O peration     | Version:  2506                                  |
|   \\  /    A nd           | Website:  www.openfoam.com                      |
|    \\/     M anipulation  |                                                 |
\*---------------------------------------------------------------------------*/
FoamFile
{
    version     2.0;
    format      ascii;
    arch        "LSB;label=32;scalar=64";
    class       volScalarField;
    location    "0.32208";
    object      alphat;
}
// * * * * * * * * * * * * * * * * * * * * * * * * * * * * * * * * * * * * * //

dimensions      [1 -1 -1 0 0 0 0];

internalField   nonuniform List<scalar> 
200
(
0.539978
0.53979
0.539258
0.537924
0.534674
0.526938
0.509196
0.470654
0.390259
0.229596
5.48059
5.47767
5.46959
5.45023
5.40557
5.30509
5.08384
4.59722
3.44367
0.39026
8.20945
8.20356
8.18741
8.14929
8.06276
7.87113
7.45563
6.56306
4.59722
0.470655
9.60404
9.59562
9.57272
9.51938
9.40027
9.14149
8.59355
7.45563
5.08384
0.509197
10.3141
10.3038
10.2759
10.2117
10.0704
9.76844
9.14149
7.87113
5.30509
0.526937
10.6665
10.6549
10.6237
10.5526
10.3976
10.0704
9.40027
8.06275
5.40557
0.534671
10.8361
10.8237
10.7905
10.7152
10.5526
10.2117
9.51938
8.14928
5.45022
0.537919
10.9152
10.9023
10.8679
10.7905
10.6237
10.2759
9.57271
8.1874
5.46957
0.53925
10.9504
10.9372
10.9023
10.8237
10.6549
10.3038
9.59561
8.20354
5.47764
0.539779
10.9636
10.9504
10.9152
10.8361
10.6665
10.3141
9.60403
8.20941
5.48054
0.539963
10.9636
10.9504
10.9152
10.8361
10.6665
10.3141
9.60403
8.20941
5.48054
0.539963
10.9504
10.9372
10.9023
10.8237
10.6549
10.3038
9.59561
8.20354
5.47764
0.539779
10.9152
10.9023
10.8679
10.7905
10.6237
10.2759
9.57271
8.1874
5.46957
0.53925
10.8361
10.8237
10.7905
10.7152
10.5526
10.2117
9.51938
8.14928
5.45022
0.537919
10.6665
10.6549
10.6237
10.5526
10.3976
10.0704
9.40027
8.06275
5.40557
0.534671
10.3141
10.3038
10.2759
10.2117
10.0704
9.76844
9.14149
7.87113
5.30509
0.526937
9.60404
9.59562
9.57272
9.51938
9.40027
9.14149
8.59355
7.45563
5.08384
0.509197
8.20945
8.20356
8.18741
8.14929
8.06276
7.87113
7.45563
6.56306
4.59722
0.470655
5.48059
5.47767
5.46959
5.45023
5.40557
5.30509
5.08384
4.59722
3.44367
0.39026
0.539979
0.53979
0.539258
0.537924
0.534674
0.526938
0.509196
0.470654
0.390259
0.229596
)
;

boundaryField
{
    leftWall
    {
        type            compressible::alphatWallFunction;
        value           nonuniform List<scalar> 0();
    }
    rightWall
    {
        type            compressible::alphatWallFunction;
        value           nonuniform List<scalar> 
20
(
0.071776
0.0914568
0.0987584
0.101523
0.102611
0.103042
0.103212
0.103278
0.103304
0.103313
0.103313
0.103304
0.103278
0.103212
0.103042
0.102611
0.101523
0.0987584
0.0914568
0.071776
)
;
    }
    topWall
    {
        type            compressible::alphatWallFunction;
        value           nonuniform List<scalar> 10(0.103315 0.103305 0.103279 0.103212 0.103042 0.102611 0.101523 0.0987583 0.0914567 0.071776);
    }
    bottomWall
    {
        type            compressible::alphatWallFunction;
        value           nonuniform List<scalar> 10(0.103315 0.103305 0.103279 0.103212 0.103042 0.102611 0.101523 0.0987583 0.0914567 0.071776);
    }
    frontAndBackPlanes
    {
        type            empty;
    }
    procBoundary0to1
    {
        type            processor;
        value           nonuniform List<scalar> 
20
(
0.539983
5.4806
8.20945
9.60402
10.3141
10.6665
10.836
10.9151
10.9503
10.9636
10.9636
10.9503
10.9151
10.836
10.6665
10.3141
9.60402
8.20945
5.4806
0.539982
)
;
    }
}


// ************************************************************************* //
