/*--------------------------------*- C++ -*----------------------------------*\
| =========                 |                                                 |
| \\      /  F ield         | OpenFOAM: The Open Source CFD Toolbox           |
|  \\    /   O peration     | Version:  2506                                  |
|   \\  /    A nd           | Website:  www.openfoam.com                      |
|    \\/     M anipulation  |                                                 |
\*---------------------------------------------------------------------------*/
FoamFile
{
    version     2.0;
    format      ascii;
    arch        "LSB;label=32;scalar=64";
    class       volScalarField;
    location    "0.32208";
    object      epsilon;
}
// * * * * * * * * * * * * * * * * * * * * * * * * * * * * * * * * * * * * * //

dimensions      [0 2 -3 0 0 0 0];

internalField   nonuniform List<scalar> 
200
(
1.31731
1.31724
1.31707
1.31657
1.31501
1.31
1.29362
1.23975
1.0672
0.627009
0.866832
0.866771
0.866579
0.866031
0.864505
0.860401
0.850057
0.827268
0.796181
1.0672
0.844781
0.844707
0.84448
0.843869
0.842316
0.838651
0.831058
0.819691
0.827268
1.23975
0.850499
0.850414
0.850159
0.849503
0.84793
0.84449
0.838142
0.831058
0.850057
1.29362
0.856478
0.856385
0.856111
0.855424
0.853822
0.85044
0.84449
0.83865
0.8604
1.30999
0.859946
0.859848
0.859561
0.858851
0.85722
0.853822
0.84793
0.842316
0.864503
1.315
0.861626
0.861525
0.861231
0.860506
0.858851
0.855424
0.849503
0.843867
0.866027
1.31655
0.862365
0.862262
0.861963
0.861231
0.859561
0.856111
0.850158
0.844478
0.866573
1.31704
0.862667
0.862562
0.862262
0.861525
0.859848
0.856385
0.850413
0.844704
0.866762
1.3172
0.862772
0.862667
0.862365
0.861626
0.859946
0.856478
0.850498
0.844778
0.86682
1.31724
0.862772
0.862667
0.862365
0.861626
0.859946
0.856478
0.850498
0.844778
0.86682
1.31724
0.862667
0.862562
0.862262
0.861525
0.859848
0.856385
0.850413
0.844704
0.866762
1.3172
0.862365
0.862262
0.861963
0.861231
0.859561
0.856111
0.850158
0.844478
0.866573
1.31704
0.861626
0.861525
0.861231
0.860506
0.858851
0.855424
0.849503
0.843867
0.866027
1.31655
0.859946
0.859848
0.859561
0.858851
0.85722
0.853822
0.84793
0.842316
0.864503
1.315
0.856478
0.856385
0.856111
0.855424
0.853822
0.85044
0.84449
0.83865
0.8604
1.30999
0.850499
0.850414
0.850159
0.849503
0.84793
0.84449
0.838142
0.831058
0.850057
1.29362
0.844781
0.844707
0.84448
0.843869
0.842316
0.838651
0.831058
0.819691
0.827268
1.23975
0.866832
0.866771
0.866579
0.866031
0.864505
0.860401
0.850057
0.827268
0.796181
1.0672
1.3173
1.31724
1.31707
1.31657
1.31501
1.31
1.29362
1.23975
1.0672
0.627009
)
;

boundaryField
{
    leftWall
    {
        type            epsilonWallFunction;
        blending        stepwise;
        value           nonuniform List<scalar> 0();
    }
    rightWall
    {
        type            epsilonWallFunction;
        blending        stepwise;
        value           nonuniform List<scalar> 
20
(
0.627009
1.0672
1.23975
1.29362
1.30999
1.315
1.31655
1.31704
1.3172
1.31724
1.31724
1.3172
1.31704
1.31655
1.315
1.30999
1.29362
1.23975
1.0672
0.627009
)
;
    }
    topWall
    {
        type            epsilonWallFunction;
        blending        stepwise;
        value           nonuniform List<scalar> 10(1.31731 1.31724 1.31707 1.31657 1.31501 1.31 1.29362 1.23975 1.0672 0.627009);
    }
    bottomWall
    {
        type            epsilonWallFunction;
        blending        stepwise;
        value           nonuniform List<scalar> 10(1.3173 1.31724 1.31707 1.31657 1.31501 1.31 1.29362 1.23975 1.0672 0.627009);
    }
    frontAndBackPlanes
    {
        type            empty;
    }
    procBoundary0to1
    {
        type            processor;
        value           nonuniform List<scalar> 
20
(
1.31732
0.866837
0.844783
0.8505
0.856478
0.859946
0.861626
0.862365
0.862667
0.862772
0.862772
0.862667
0.862365
0.861626
0.859946
0.856479
0.8505
0.844783
0.866837
1.31733
)
;
    }
}


// ************************************************************************* //
