/*--------------------------------*- C++ -*----------------------------------*\
| =========                 |                                                 |
| \\      /  F ield         | OpenFOAM: The Open Source CFD Toolbox           |
|  \\    /   O peration     | Version:  2506                                  |
|   \\  /    A nd           | Website:  www.openfoam.com                      |
|    \\/     M anipulation  |                                                 |
\*---------------------------------------------------------------------------*/
FoamFile
{
    version     2.0;
    format      ascii;
    arch        "LSB;label=32;scalar=64";
    class       volScalarField;
    location    "0.446496";
    object      alphat;
}
// * * * * * * * * * * * * * * * * * * * * * * * * * * * * * * * * * * * * * //

dimensions      [1 -1 -1 0 0 0 0];

internalField   nonuniform List<scalar> 
400
(
0.199345
0.349318
0.419437
0.45873
0.48151
0.494183
0.500886
0.504271
0.505879
0.506514
0.506512
0.505874
0.504266
0.500885
0.49419
0.481529
0.458767
0.4195
0.349421
0.199758
0.348858
3.00999
4.09312
4.59987
4.86831
5.01458
5.09332
5.13444
5.1547
5.16295
5.16295
5.15472
5.13449
5.09344
5.01484
4.86878
4.60068
4.09444
3.01198
0.349422
0.418785
4.09121
6.05829
7.05349
7.58652
7.87657
8.03295
8.11512
8.15594
8.17268
8.17271
8.15603
8.1153
8.03331
7.87721
7.58759
7.0552
6.06082
4.09445
0.419501
0.457973
4.5968
7.05189
8.37013
9.09857
9.50233
9.72298
9.84028
9.89916
9.92348
9.92353
9.89932
9.84062
9.72358
9.50333
9.10017
8.37253
7.05521
4.60068
0.458768
0.480688
4.86454
7.58381
9.09731
9.95536
10.44
10.7089
10.8536
10.9269
10.9574
10.9575
10.9272
10.854
10.7097
10.4413
9.95735
9.10017
7.5876
4.86879
0.48153
0.493321
5.01038
7.87314
9.50019
10.4391
10.9773
11.2796
11.444
11.5281
11.5633
11.5634
11.5284
11.4446
11.2805
10.9788
10.4413
9.50334
7.87722
5.01484
0.494189
0.500001
5.08887
8.02906
9.72026
10.7073
11.2789
11.6029
11.7806
11.8721
11.9105
11.9106
11.8724
11.7813
11.604
11.2805
10.7097
9.72359
8.03331
5.09344
0.500883
0.503373
5.12985
8.11096
9.83719
10.8515
11.4429
11.7802
11.9662
12.0623
12.1029
12.103
12.0627
11.9668
11.7813
11.4446
10.8541
9.84063
8.1153
5.13449
0.504262
0.504976
5.15003
8.15164
9.89585
10.9246
11.5267
11.8713
12.062
12.161
12.2028
12.2029
12.1613
12.0627
11.8725
11.5284
10.9272
9.89934
8.15603
5.15471
0.505868
0.50561
5.15825
8.1683
9.92006
10.955
11.5617
11.9096
12.1024
12.2026
12.245
12.2451
12.203
12.1031
11.9108
11.5635
10.9576
9.92357
8.17271
5.16293
0.506504
0.50561
5.15825
8.1683
9.92006
10.955
11.5617
11.9096
12.1024
12.2026
12.245
12.2451
12.203
12.1031
11.9108
11.5635
10.9576
9.92357
8.17271
5.16293
0.506504
0.504976
5.15003
8.15164
9.89585
10.9246
11.5267
11.8713
12.062
12.161
12.2028
12.2029
12.1613
12.0627
11.8725
11.5284
10.9272
9.89934
8.15603
5.15471
0.505868
0.503373
5.12985
8.11096
9.83719
10.8515
11.4429
11.7802
11.9662
12.0623
12.1029
12.103
12.0627
11.9668
11.7813
11.4446
10.8541
9.84063
8.1153
5.13449
0.504262
0.500001
5.08887
8.02906
9.72026
10.7073
11.2789
11.6029
11.7806
11.8721
11.9105
11.9106
11.8724
11.7813
11.604
11.2805
10.7097
9.72359
8.03331
5.09344
0.500883
0.493321
5.01038
7.87314
9.50019
10.4391
10.9773
11.2796
11.444
11.5281
11.5633
11.5634
11.5284
11.4446
11.2805
10.9788
10.4413
9.50334
7.87722
5.01484
0.494189
0.480688
4.86454
7.58381
9.09731
9.95536
10.44
10.7089
10.8536
10.9269
10.9574
10.9575
10.9272
10.854
10.7097
10.4413
9.95735
9.10017
7.5876
4.86879
0.48153
0.457973
4.5968
7.0519
8.37013
9.09857
9.50233
9.72298
9.84029
9.89916
9.92348
9.92352
9.89932
9.84062
9.72358
9.50333
9.10017
8.37253
7.05521
4.60068
0.458768
0.418785
4.09121
6.05829
7.05349
7.58652
7.87657
8.03295
8.11512
8.15594
8.17268
8.1727
8.15603
8.1153
8.03331
7.87721
7.58759
7.0552
6.06082
4.09445
0.419501
0.348858
3.00999
4.09312
4.59987
4.86831
5.01458
5.09332
5.13444
5.1547
5.16295
5.16295
5.15472
5.13449
5.09344
5.01484
4.86878
4.60068
4.09444
3.01198
0.349422
0.199345
0.349318
0.419437
0.45873
0.48151
0.494183
0.500886
0.504271
0.505878
0.506514
0.506513
0.505875
0.504266
0.500885
0.49419
0.481529
0.458767
0.4195
0.349421
0.199758
)
;

boundaryField
{
    leftWall
    {
        type            compressible::alphatWallFunction;
        value           nonuniform List<scalar> 
20
(
0.0470087
0.064027
0.0707113
0.073682
0.0751
0.0757844
0.0761118
0.0762659
0.0763358
0.0763626
0.0763626
0.0763358
0.0762659
0.0761118
0.0757844
0.0751
0.073682
0.0707113
0.064027
0.0470087
)
;
    }
    rightWall
    {
        type            compressible::alphatWallFunction;
        value           nonuniform List<scalar> 
20
(
0.0566522
0.0772443
0.0853145
0.088896
0.0906046
0.0914288
0.091823
0.0920084
0.0920924
0.0921247
0.0921247
0.0920924
0.0920084
0.091823
0.0914288
0.0906046
0.088896
0.0853145
0.0772443
0.0566522
)
;
    }
    topWall
    {
        type            compressible::alphatWallFunction;
        value           nonuniform List<scalar> 
20
(
0.0566771
0.0772569
0.0853203
0.0889005
0.0906086
0.0914325
0.0918264
0.0920114
0.0920949
0.0921267
0.0921263
0.0920936
0.0920092
0.0918235
0.0914291
0.0906047
0.088896
0.0853144
0.0772442
0.0566522
)
;
    }
    bottomWall
    {
        type            compressible::alphatWallFunction;
        value           nonuniform List<scalar> 
20
(
0.0566771
0.0772569
0.0853203
0.0889005
0.0906086
0.0914325
0.0918264
0.0920114
0.0920949
0.0921267
0.0921263
0.0920936
0.0920092
0.0918235
0.0914291
0.0906047
0.088896
0.0853144
0.0772442
0.0566522
)
;
    }
    frontAndBackPlanes
    {
        type            empty;
    }
}


// ************************************************************************* //
