/*--------------------------------*- C++ -*----------------------------------*\
| =========                 |                                                 |
| \\      /  F ield         | OpenFOAM: The Open Source CFD Toolbox           |
|  \\    /   O peration     | Version:  2506                                  |
|   \\  /    A nd           | Website:  www.openfoam.com                      |
|    \\/     M anipulation  |                                                 |
\*---------------------------------------------------------------------------*/
FoamFile
{
    version     2.0;
    format      ascii;
    arch        "LSB;label=32;scalar=64";
    class       volScalarField;
    location    "0.446496";
    object      k;
}
// * * * * * * * * * * * * * * * * * * * * * * * * * * * * * * * * * * * * * //

dimensions      [0 2 -2 0 0 0 0];

internalField   nonuniform List<scalar> 
400
(
0.0238518
0.0469565
0.0583728
0.0638806
0.0666046
0.0679408
0.0685847
0.0688883
0.0690256
0.0690779
0.0690771
0.0690233
0.0688847
0.0685799
0.0679351
0.0665983
0.0638736
0.058364
0.0469395
0.023829
0.0469787
0.120969
0.146423
0.159399
0.166268
0.169864
0.171705
0.172624
0.173059
0.173232
0.173231
0.173057
0.172621
0.171701
0.169859
0.166262
0.15939
0.146407
0.120942
0.0469397
0.0584005
0.146431
0.178015
0.194692
0.203908
0.20893
0.211596
0.212966
0.213631
0.213899
0.213899
0.21363
0.212965
0.211595
0.208929
0.203906
0.194687
0.178003
0.146407
0.0583641
0.0639103
0.159411
0.194696
0.213755
0.224573
0.230632
0.233931
0.235664
0.236522
0.236872
0.236872
0.236522
0.235665
0.233933
0.230634
0.224574
0.213753
0.194687
0.15939
0.0638737
0.0666355
0.166281
0.203913
0.224573
0.236509
0.243317
0.24709
0.249104
0.250115
0.250531
0.250531
0.250116
0.249107
0.247093
0.243321
0.236513
0.224574
0.203906
0.166262
0.0665982
0.0679726
0.169877
0.208935
0.230632
0.243316
0.250641
0.254749
0.256969
0.258093
0.258559
0.258559
0.258094
0.256972
0.254754
0.250646
0.243321
0.230634
0.208929
0.169858
0.0679347
0.0686175
0.17172
0.211599
0.233929
0.247087
0.254747
0.25908
0.261439
0.262642
0.263144
0.263144
0.262644
0.261443
0.259086
0.254754
0.247093
0.233933
0.211595
0.171701
0.0685791
0.0689222
0.172639
0.212969
0.235661
0.249099
0.256964
0.261437
0.263884
0.265138
0.265663
0.265664
0.265141
0.263888
0.261443
0.256972
0.249107
0.235665
0.212964
0.17262
0.0688834
0.0690605
0.173075
0.213634
0.236518
0.250108
0.258087
0.262638
0.265136
0.26642
0.266958
0.266959
0.266423
0.265141
0.262644
0.258095
0.250116
0.236522
0.21363
0.173056
0.0690214
0.0691137
0.173248
0.213902
0.236867
0.250524
0.258552
0.263139
0.26566
0.266957
0.267502
0.267502
0.26696
0.265664
0.263145
0.25856
0.250532
0.236872
0.213898
0.173229
0.0690745
0.0691137
0.173248
0.213902
0.236867
0.250524
0.258552
0.263139
0.26566
0.266957
0.267502
0.267502
0.26696
0.265664
0.263145
0.25856
0.250532
0.236872
0.213898
0.173229
0.0690745
0.0690605
0.173075
0.213634
0.236518
0.250108
0.258087
0.262638
0.265137
0.26642
0.266958
0.266959
0.266423
0.265141
0.262644
0.258095
0.250116
0.236522
0.21363
0.173056
0.0690214
0.0689222
0.172639
0.212969
0.235661
0.249099
0.256964
0.261437
0.263884
0.265138
0.265663
0.265664
0.265141
0.263888
0.261443
0.256972
0.249107
0.235665
0.212964
0.17262
0.0688834
0.0686175
0.17172
0.211599
0.233929
0.247087
0.254747
0.25908
0.261439
0.262642
0.263144
0.263144
0.262644
0.261443
0.259086
0.254754
0.247093
0.233933
0.211595
0.171701
0.0685791
0.0679726
0.169877
0.208935
0.230632
0.243316
0.250641
0.254749
0.256969
0.258093
0.258559
0.258559
0.258094
0.256972
0.254754
0.250646
0.243321
0.230634
0.208929
0.169858
0.0679347
0.0666355
0.166281
0.203913
0.224573
0.236509
0.243317
0.24709
0.249104
0.250115
0.250531
0.250531
0.250116
0.249107
0.247093
0.243321
0.236513
0.224574
0.203906
0.166262
0.0665982
0.0639103
0.159411
0.194696
0.213755
0.224573
0.230632
0.233931
0.235664
0.236522
0.236872
0.236872
0.236522
0.235665
0.233933
0.230634
0.224574
0.213753
0.194687
0.15939
0.0638737
0.0584005
0.146431
0.178015
0.194692
0.203908
0.20893
0.211596
0.212966
0.213631
0.213899
0.213899
0.21363
0.212965
0.211595
0.208929
0.203906
0.194687
0.178003
0.146407
0.0583641
0.0469787
0.120969
0.146423
0.159399
0.166268
0.169864
0.171706
0.172624
0.173059
0.173232
0.173231
0.173057
0.172621
0.171701
0.169859
0.166262
0.15939
0.146407
0.120942
0.0469397
0.0238518
0.0469565
0.0583728
0.0638806
0.0666046
0.0679408
0.0685847
0.0688883
0.0690256
0.0690779
0.0690771
0.0690233
0.0688847
0.0685799
0.0679351
0.0665983
0.0638736
0.058364
0.0469395
0.023829
)
;

boundaryField
{
    leftWall
    {
        type            kqRWallFunction;
        value           nonuniform List<scalar> 
20
(
0.0238518
0.0469787
0.0584005
0.0639103
0.0666355
0.0679726
0.0686175
0.0689222
0.0690605
0.0691137
0.0691137
0.0690605
0.0689222
0.0686175
0.0679726
0.0666355
0.0639103
0.0584005
0.0469787
0.0238518
)
;
    }
    rightWall
    {
        type            kqRWallFunction;
        value           nonuniform List<scalar> 
20
(
0.023829
0.0469397
0.0583641
0.0638737
0.0665982
0.0679347
0.0685791
0.0688834
0.0690214
0.0690745
0.0690745
0.0690214
0.0688834
0.0685791
0.0679347
0.0665982
0.0638737
0.0583641
0.0469397
0.023829
)
;
    }
    topWall
    {
        type            kqRWallFunction;
        value           nonuniform List<scalar> 
20
(
0.0238518
0.0469565
0.0583728
0.0638806
0.0666046
0.0679408
0.0685847
0.0688883
0.0690256
0.0690779
0.0690771
0.0690233
0.0688847
0.0685799
0.0679351
0.0665983
0.0638736
0.058364
0.0469395
0.023829
)
;
    }
    bottomWall
    {
        type            kqRWallFunction;
        value           nonuniform List<scalar> 
20
(
0.0238518
0.0469565
0.0583728
0.0638806
0.0666046
0.0679408
0.0685847
0.0688883
0.0690256
0.0690779
0.0690771
0.0690233
0.0688847
0.0685799
0.0679351
0.0665983
0.0638736
0.058364
0.0469395
0.023829
)
;
    }
    frontAndBackPlanes
    {
        type            empty;
    }
}


// ************************************************************************* //
