/*--------------------------------*- C++ -*----------------------------------*\
| =========                 |                                                 |
| \\      /  F ield         | OpenFOAM: The Open Source CFD Toolbox           |
|  \\    /   O peration     | Version:  2506                                  |
|   \\  /    A nd           | Website:  www.openfoam.com                      |
|    \\/     M anipulation  |                                                 |
\*---------------------------------------------------------------------------*/
FoamFile
{
    version     2.0;
    format      ascii;
    arch        "LSB;label=32;scalar=64";
    class       volScalarField;
    location    "0.446496";
    object      nut;
}
// * * * * * * * * * * * * * * * * * * * * * * * * * * * * * * * * * * * * * //

dimensions      [0 2 -1 0 0 0 0];

internalField   nonuniform List<scalar> 
400
(
0.000199636
0.000349051
0.000418967
0.00045816
0.000480884
0.000493527
0.000500214
0.00050359
0.000505193
0.000505827
0.000505825
0.000505188
0.000503581
0.000500205
0.000493518
0.000480875
0.000458144
0.00041893
0.000348946
0.000199487
0.000349163
0.00300835
0.00408923
0.00459461
0.00486226
0.00500808
0.00508656
0.00512755
0.00514775
0.00515596
0.00515595
0.00514772
0.00512752
0.00508653
0.00500803
0.00486217
0.00459443
0.00408888
0.00300789
0.000348947
0.000419089
0.00408916
0.00605286
0.00704573
0.0075773
0.0078665
0.00802238
0.00810428
0.00814496
0.00816163
0.00816163
0.00814496
0.00810429
0.0080224
0.00786651
0.00757729
0.00704562
0.00605258
0.00408888
0.000418931
0.000458286
0.00459457
0.00704577
0.00836113
0.00908769
0.00949029
0.00971027
0.00982719
0.00988586
0.00991008
0.00991009
0.00988589
0.00982726
0.00971038
0.00949043
0.00908781
0.00836116
0.00704562
0.00459444
0.000458145
0.000481008
0.00486222
0.00757733
0.00908766
0.00994357
0.0104269
0.0106949
0.0108392
0.0109123
0.0109426
0.0109427
0.0109123
0.0108393
0.0106951
0.0104271
0.00994383
0.00908781
0.0075773
0.00486217
0.000480875
0.000493646
0.00500802
0.00786647
0.00949018
0.0104268
0.0109635
0.0112649
0.0114289
0.0115126
0.0115477
0.0115477
0.0115128
0.0114291
0.0112652
0.0109639
0.0104271
0.00949043
0.00786652
0.00500803
0.000493518
0.000500329
0.00508648
0.00802229
0.00971005
0.0106947
0.0112648
0.0115879
0.011765
0.0118562
0.0118945
0.0118945
0.0118563
0.0117653
0.0115882
0.0112652
0.0106951
0.00971038
0.0080224
0.00508653
0.000500203
0.000503702
0.00512744
0.00810413
0.00982689
0.0108388
0.0114286
0.0117649
0.0119503
0.0120462
0.0120866
0.0120867
0.0120464
0.0119506
0.0117653
0.0114291
0.0108393
0.00982727
0.00810428
0.00512751
0.000503577
0.000505306
0.00514762
0.00814478
0.0098855
0.0109118
0.0115123
0.011856
0.0120461
0.0121447
0.0121863
0.0121864
0.0121449
0.0120464
0.0118564
0.0115128
0.0109124
0.0098859
0.00814495
0.0051477
0.000505181
0.000505941
0.00515583
0.00816143
0.00990968
0.0109422
0.0115473
0.0118942
0.0120864
0.0121863
0.0122285
0.0122285
0.0121864
0.0120867
0.0118946
0.0115478
0.0109427
0.0099101
0.00816161
0.00515592
0.000505816
0.000505941
0.00515583
0.00816143
0.00990968
0.0109422
0.0115473
0.0118942
0.0120864
0.0121863
0.0122285
0.0122285
0.0121864
0.0120867
0.0118946
0.0115478
0.0109427
0.0099101
0.00816161
0.00515592
0.000505816
0.000505306
0.00514762
0.00814478
0.0098855
0.0109118
0.0115123
0.011856
0.0120461
0.0121447
0.0121863
0.0121864
0.0121449
0.0120464
0.0118564
0.0115128
0.0109124
0.0098859
0.00814495
0.0051477
0.000505181
0.000503702
0.00512744
0.00810413
0.00982689
0.0108388
0.0114286
0.0117649
0.0119503
0.0120462
0.0120866
0.0120867
0.0120464
0.0119506
0.0117653
0.0114291
0.0108393
0.00982727
0.00810428
0.00512751
0.000503577
0.000500329
0.00508648
0.00802229
0.00971005
0.0106947
0.0112648
0.0115879
0.011765
0.0118562
0.0118945
0.0118945
0.0118563
0.0117653
0.0115882
0.0112652
0.0106951
0.00971038
0.0080224
0.00508653
0.000500203
0.000493646
0.00500802
0.00786647
0.00949018
0.0104268
0.0109635
0.0112649
0.0114289
0.0115126
0.0115477
0.0115477
0.0115128
0.0114291
0.0112652
0.0109639
0.0104271
0.00949043
0.00786652
0.00500803
0.000493518
0.000481008
0.00486222
0.00757733
0.00908766
0.00994357
0.0104269
0.0106949
0.0108392
0.0109123
0.0109426
0.0109427
0.0109123
0.0108393
0.0106951
0.0104271
0.00994383
0.00908781
0.0075773
0.00486217
0.000480875
0.000458286
0.00459457
0.00704577
0.00836113
0.00908769
0.00949029
0.00971027
0.00982719
0.00988586
0.00991008
0.00991009
0.00988589
0.00982726
0.00971038
0.00949043
0.00908781
0.00836116
0.00704562
0.00459444
0.000458145
0.000419089
0.00408916
0.00605286
0.00704573
0.0075773
0.0078665
0.00802238
0.00810428
0.00814496
0.00816163
0.00816163
0.00814496
0.00810429
0.0080224
0.00786651
0.00757729
0.00704562
0.00605258
0.00408888
0.000418931
0.000349163
0.00300835
0.00408923
0.00459461
0.00486226
0.00500808
0.00508656
0.00512755
0.00514775
0.00515596
0.00515595
0.00514772
0.00512752
0.00508653
0.00500803
0.00486217
0.00459443
0.00408888
0.00300789
0.000348947
0.000199636
0.000349051
0.000418967
0.00045816
0.000480884
0.000493527
0.000500214
0.000503589
0.000505193
0.000505827
0.000505825
0.000505188
0.000503581
0.000500205
0.000493518
0.000480875
0.000458144
0.00041893
0.000348946
0.000199487
)
;

boundaryField
{
    leftWall
    {
        type            nutkWallFunction;
        blending        stepwise;
        value           nonuniform List<scalar> 
20
(
4.10454e-05
5.59048e-05
6.17412e-05
6.4335e-05
6.55732e-05
6.61707e-05
6.64566e-05
6.65912e-05
6.66522e-05
6.66756e-05
6.66756e-05
6.66522e-05
6.65912e-05
6.64566e-05
6.61707e-05
6.55732e-05
6.4335e-05
6.17412e-05
5.59048e-05
4.10454e-05
)
;
    }
    rightWall
    {
        type            nutkWallFunction;
        blending        stepwise;
        value           nonuniform List<scalar> 
20
(
4.8089e-05
6.55684e-05
7.24188e-05
7.5459e-05
7.69093e-05
7.76089e-05
7.79435e-05
7.81009e-05
7.81722e-05
7.81996e-05
7.81996e-05
7.81722e-05
7.81009e-05
7.79435e-05
7.76089e-05
7.69093e-05
7.5459e-05
7.24188e-05
6.55684e-05
4.8089e-05
)
;
    }
    topWall
    {
        type            nutkWallFunction;
        blending        stepwise;
        value           nonuniform List<scalar> 
20
(
4.81101e-05
6.55792e-05
7.24237e-05
7.54628e-05
7.69127e-05
7.76121e-05
7.79464e-05
7.81035e-05
7.81744e-05
7.82013e-05
7.8201e-05
7.81732e-05
7.81016e-05
7.79439e-05
7.76091e-05
7.69094e-05
7.5459e-05
7.24187e-05
6.55684e-05
4.8089e-05
)
;
    }
    bottomWall
    {
        type            nutkWallFunction;
        blending        stepwise;
        value           nonuniform List<scalar> 
20
(
4.81101e-05
6.55792e-05
7.24237e-05
7.54628e-05
7.69127e-05
7.76121e-05
7.79464e-05
7.81035e-05
7.81744e-05
7.82014e-05
7.82009e-05
7.81732e-05
7.81016e-05
7.79439e-05
7.76091e-05
7.69094e-05
7.5459e-05
7.24187e-05
6.55684e-05
4.8089e-05
)
;
    }
    frontAndBackPlanes
    {
        type            empty;
    }
}


// ************************************************************************* //
