/*--------------------------------*- C++ -*----------------------------------*\
| =========                 |                                                 |
| \\      /  F ield         | OpenFOAM: The Open Source CFD Toolbox           |
|  \\    /   O peration     | Version:  2506                                  |
|   \\  /    A nd           | Website:  www.openfoam.com                      |
|    \\/     M anipulation  |                                                 |
\*---------------------------------------------------------------------------*/
FoamFile
{
    version     2.0;
    format      ascii;
    arch        "LSB;label=32;scalar=64";
    class       surfaceScalarField;
    location    "0.446496";
    object      phi;
}
// * * * * * * * * * * * * * * * * * * * * * * * * * * * * * * * * * * * * * //

dimensions      [1 0 -1 0 0 0 0];

oriented        oriented;

internalField   nonuniform List<scalar> 
760
(
-8.46974e-06
-1.58361e-05
3.00735e-07
-1.11036e-05
2.88307e-06
-7.94893e-06
3.84152e-06
-6.85316e-06
4.05421e-06
-5.9316e-06
3.915e-06
-5.18569e-06
3.62746e-06
-4.5769e-06
3.29153e-06
-4.05526e-06
2.95407e-06
-3.5912e-06
2.63665e-06
-3.17051e-06
2.34812e-06
-2.78598e-06
2.0906e-06
-2.4338e-06
1.86265e-06
-2.11195e-06
1.6609e-06
-1.81972e-06
1.48101e-06
-1.55763e-06
1.31804e-06
-1.3272e-06
1.16862e-06
-1.13112e-06
1.0507e-06
-9.91293e-07
1.03554e-06
-9.91176e-07
-9.70383e-07
-5.62197e-06
-1.12461e-05
-2.45452e-06
-1.02864e-05
4.24828e-07
-7.86237e-06
2.12242e-06
-6.49665e-06
3.02544e-06
-5.49856e-06
3.39225e-06
-4.72941e-06
3.42585e-06
-4.12525e-06
3.27561e-06
-3.62859e-06
3.03817e-06
-3.20036e-06
2.77029e-06
-2.8192e-06
2.50295e-06
-2.47396e-06
2.25163e-06
-2.15884e-06
2.02305e-06
-1.87099e-06
1.81935e-06
-1.60958e-06
1.64073e-06
-1.37568e-06
1.48768e-06
-1.17245e-06
1.36516e-06
-1.00773e-06
1.27975e-06
-9.05454e-07
1.19007e-06
-9.01299e-07
-8.10858e-07
-4.77126e-06
-8.63226e-06
-2.76024e-06
-8.40546e-06
-4.95401e-07
-6.94948e-06
1.2138e-06
-5.84896e-06
2.30178e-06
-4.96924e-06
2.87514e-06
-4.26216e-06
3.08107e-06
-3.69529e-06
3.05604e-06
-3.23036e-06
2.90315e-06
-2.83518e-06
2.69047e-06
-2.48864e-06
2.45902e-06
-2.17827e-06
2.23169e-06
-1.897e-06
2.02026e-06
-1.64124e-06
1.83023e-06
-1.4099e-06
1.66388e-06
-1.2043e-06
1.52234e-06
-1.0283e-06
1.40606e-06
-8.90117e-07
1.30757e-06
-8.06273e-07
1.19748e-06
-7.90879e-07
-7.20326e-07
-5.4079e-06
-6.70104e-06
-3.18516e-06
-6.74681e-06
-9.77775e-07
-5.8416e-06
7.68111e-07
-5.04238e-06
1.94867e-06
-4.34045e-06
2.62622e-06
-3.74193e-06
2.92442e-06
-3.24318e-06
2.97067e-06
-2.82669e-06
2.86818e-06
-2.47193e-06
2.68931e-06
-2.16261e-06
2.48007e-06
-1.88769e-06
2.26756e-06
-1.64027e-06
2.06665e-06
-1.41659e-06
1.88485e-06
-1.21549e-06
1.72542e-06
-1.03822e-06
1.58916e-06
-8.88559e-07
1.47434e-06
-7.73483e-07
1.37341e-06
-7.04414e-07
1.27313e-06
-6.90125e-07
-6.4377e-07
-6.00876e-06
-5.12165e-06
-3.55517e-06
-5.29668e-06
-1.24957e-06
-4.7312e-06
5.68364e-07
-4.17386e-06
1.81615e-06
-3.64555e-06
2.55375e-06
-3.16929e-06
2.90135e-06
-2.75583e-06
2.98489e-06
-2.40167e-06
2.90841e-06
-2.09654e-06
2.74659e-06
-1.82997e-06
2.54812e-06
-1.59372e-06
2.34241e-06
-1.3821e-06
2.14604e-06
-1.19181e-06
1.96755e-06
-1.02177e-06
1.81055e-06
-8.73129e-07
1.67541e-06
-7.49154e-07
1.55962e-06
-6.5545e-07
1.45668e-06
-6.00314e-07
1.35746e-06
-5.9032e-07
-5.58934e-07
-6.45654e-06
-3.81112e-06
-3.80991e-06
-4.01371e-06
-1.3886e-06
-3.66704e-06
5.06036e-07
-3.29329e-06
1.80788e-06
-2.91577e-06
2.58366e-06
-2.55819e-06
2.95763e-06
-2.23563e-06
3.0585e-06
-1.95186e-06
2.99258e-06
-1.70356e-06
2.83654e-06
-1.48522e-06
2.64078e-06
-1.29153e-06
2.43603e-06
-1.11841e-06
2.23972e-06
-9.63335e-07
2.06082e-06
-8.25508e-07
1.90285e-06
-7.05886e-07
1.76575e-06
-6.07122e-07
1.64641e-06
-5.33515e-07
1.53856e-06
-4.91094e-07
1.43369e-06
-4.84762e-07
-4.63158e-07
-6.80105e-06
-2.7014e-06
-3.9899e-06
-2.87581e-06
-1.45877e-06
-2.66877e-06
5.08477e-07
-2.42996e-06
1.85645e-06
-2.17605e-06
2.65972e-06
-1.92532e-06
3.04874e-06
-1.69152e-06
3.15674e-06
-1.48076e-06
3.09309e-06
-1.29344e-06
2.93655e-06
-1.12734e-06
2.73886e-06
-9.7953e-07
2.53161e-06
-8.47451e-07
2.33268e-06
-7.29425e-07
2.15108e-06
-6.2494e-07
1.99016e-06
-5.34762e-07
1.84936e-06
-4.60883e-07
1.72514e-06
-4.06407e-07
1.61112e-06
-3.75559e-07
1.49899e-06
-3.71856e-07
-3.57201e-07
-7.05854e-06
-1.72948e-06
-4.12047e-06
-1.85268e-06
-1.4978e-06
-1.73644e-06
5.31416e-07
-1.59629e-06
1.91785e-06
-1.44162e-06
2.74236e-06
-1.28398e-06
3.14113e-06
-1.13317e-06
3.2519e-06
-9.94551e-07
3.18714e-06
-8.69725e-07
3.02762e-06
-7.58179e-07
2.82624e-06
-6.58563e-07
2.61523e-06
-5.69484e-07
2.41271e-06
-4.89979e-07
2.22766e-06
-4.19778e-07
2.06317e-06
-3.59425e-07
1.91835e-06
-3.10243e-07
1.78928e-06
-2.74245e-07
1.66947e-06
-2.54126e-07
1.55062e-06
-2.52167e-07
-2.42942e-07
-7.22972e-06
-8.43869e-07
-4.20763e-06
-9.06983e-07
-1.52079e-06
-8.54722e-07
5.53205e-07
-7.90171e-07
1.96769e-06
-7.17293e-07
2.80743e-06
-6.41533e-07
3.21271e-06
-5.67869e-07
3.32465e-06
-4.99314e-07
3.25819e-06
-4.37043e-07
3.09565e-06
-3.81099e-07
2.89085e-06
-3.31003e-07
2.67647e-06
-2.8617e-07
2.47079e-06
-2.46174e-07
2.28275e-06
-2.1091e-07
2.11525e-06
-1.8066e-07
1.96714e-06
-1.56086e-07
1.83429e-06
-1.38177e-07
1.71012e-06
-1.28248e-07
1.58625e-06
-1.2742e-07
-1.22929e-07
-7.31515e-06
2.45874e-13
-4.25153e-06
3.93784e-13
-1.53194e-06
5.9564e-13
5.65377e-07
8.83392e-13
1.99466e-06
1.2497e-12
2.84248e-06
1.68037e-12
3.25114e-06
2.14467e-12
3.36359e-06
2.58964e-12
3.29607e-06
2.95158e-12
3.13176e-06
3.13212e-12
2.92499e-06
3.01803e-12
2.70868e-06
2.57211e-12
2.5012e-06
2.01514e-12
2.31145e-06
1.46779e-12
2.14225e-06
9.84846e-13
1.99233e-06
5.93781e-13
1.85744e-06
3.0564e-13
1.73093e-06
1.23431e-13
1.60441e-06
2.59281e-14
-2.58146e-14
-7.31515e-06
8.4387e-07
-4.25153e-06
9.06984e-07
-1.53194e-06
8.54723e-07
5.65378e-07
7.90173e-07
1.99466e-06
7.17296e-07
2.84248e-06
6.41536e-07
3.25114e-06
5.67873e-07
3.36359e-06
4.99319e-07
3.29607e-06
4.37048e-07
3.13176e-06
3.81105e-07
2.92499e-06
3.31009e-07
2.70868e-06
2.86175e-07
2.5012e-06
2.46178e-07
2.31145e-06
2.10912e-07
2.14225e-06
1.80662e-07
1.99233e-06
1.56087e-07
1.85744e-06
1.38177e-07
1.73093e-06
1.28248e-07
1.60441e-06
1.2742e-07
1.22929e-07
-7.22972e-06
1.72948e-06
-4.20763e-06
1.85268e-06
-1.52079e-06
1.73644e-06
5.53206e-07
1.5963e-06
1.96769e-06
1.44163e-06
2.80744e-06
1.28398e-06
3.21271e-06
1.13317e-06
3.32465e-06
9.94555e-07
3.25819e-06
8.6973e-07
3.09565e-06
7.58185e-07
2.89085e-06
6.58568e-07
2.67647e-06
5.69488e-07
2.47079e-06
4.89983e-07
2.28275e-06
4.19781e-07
2.11525e-06
3.59426e-07
1.96714e-06
3.10244e-07
1.83429e-06
2.74245e-07
1.71012e-06
2.54126e-07
1.58625e-06
2.52167e-07
2.42942e-07
-7.05854e-06
2.7014e-06
-4.12047e-06
2.87581e-06
-1.49779e-06
2.66877e-06
5.31418e-07
2.42996e-06
1.91785e-06
2.17605e-06
2.74236e-06
1.92532e-06
3.14113e-06
1.69152e-06
3.2519e-06
1.48076e-06
3.18715e-06
1.29344e-06
3.02762e-06
1.12734e-06
2.82624e-06
9.79534e-07
2.61523e-06
8.47454e-07
2.4127e-06
7.29428e-07
2.22766e-06
6.24942e-07
2.06317e-06
5.34764e-07
1.91834e-06
4.60883e-07
1.78927e-06
4.06407e-07
1.66947e-06
3.75559e-07
1.55062e-06
3.71856e-07
3.57201e-07
-6.80105e-06
3.81112e-06
-3.9899e-06
4.01371e-06
-1.45876e-06
3.66704e-06
5.08479e-07
3.29329e-06
1.85645e-06
2.91577e-06
2.65973e-06
2.5582e-06
3.04875e-06
2.23563e-06
3.15674e-06
1.95186e-06
3.09309e-06
1.70357e-06
2.93655e-06
1.48523e-06
2.73886e-06
1.29154e-06
2.53161e-06
1.11841e-06
2.33267e-06
9.63336e-07
2.15108e-06
8.25509e-07
1.99016e-06
7.05887e-07
1.84936e-06
6.07122e-07
1.72514e-06
5.33515e-07
1.61112e-06
4.91094e-07
1.49899e-06
4.84762e-07
4.63158e-07
-6.45654e-06
5.12165e-06
-3.8099e-06
5.29668e-06
-1.3886e-06
4.7312e-06
5.06039e-07
4.17386e-06
1.80788e-06
3.64555e-06
2.58367e-06
3.16929e-06
2.95763e-06
2.75583e-06
3.0585e-06
2.40167e-06
2.99258e-06
2.09654e-06
2.83654e-06
1.82997e-06
2.64078e-06
1.59372e-06
2.43602e-06
1.3821e-06
2.23972e-06
1.19181e-06
2.06081e-06
1.02177e-06
1.90285e-06
8.73129e-07
1.76575e-06
7.49154e-07
1.64641e-06
6.5545e-07
1.53855e-06
6.00314e-07
1.43369e-06
5.9032e-07
5.58934e-07
-6.00876e-06
6.70104e-06
-3.55517e-06
6.74681e-06
-1.24957e-06
5.8416e-06
5.68366e-07
5.04238e-06
1.81616e-06
4.34045e-06
2.55375e-06
3.74193e-06
2.90136e-06
3.24317e-06
2.98489e-06
2.82669e-06
2.90841e-06
2.47192e-06
2.74659e-06
2.16261e-06
2.54811e-06
1.88769e-06
2.3424e-06
1.64026e-06
2.14603e-06
1.41659e-06
1.96755e-06
1.21548e-06
1.81054e-06
1.03822e-06
1.67541e-06
8.88558e-07
1.55961e-06
7.73483e-07
1.45668e-06
7.04413e-07
1.35746e-06
6.90125e-07
6.4377e-07
-5.4079e-06
8.63226e-06
-3.18516e-06
8.40546e-06
-9.77773e-07
6.94948e-06
7.68113e-07
5.84896e-06
1.94867e-06
4.96924e-06
2.62623e-06
4.26215e-06
2.92442e-06
3.69528e-06
2.97067e-06
3.23036e-06
2.86818e-06
2.83517e-06
2.68931e-06
2.48863e-06
2.48006e-06
2.17826e-06
2.26756e-06
1.897e-06
2.06665e-06
1.64123e-06
1.88485e-06
1.4099e-06
1.72542e-06
1.20429e-06
1.58916e-06
1.0283e-06
1.47434e-06
8.90116e-07
1.37341e-06
8.06273e-07
1.27313e-06
7.90879e-07
7.20326e-07
-4.77125e-06
1.12461e-05
-2.76024e-06
1.02864e-05
-4.954e-07
7.86237e-06
1.2138e-06
6.49665e-06
2.30178e-06
5.49856e-06
2.87514e-06
4.72941e-06
3.08107e-06
4.12524e-06
3.05605e-06
3.62858e-06
2.90315e-06
3.20036e-06
2.69047e-06
2.8192e-06
2.45902e-06
2.47396e-06
2.23169e-06
2.15883e-06
2.02026e-06
1.87098e-06
1.83023e-06
1.60957e-06
1.66388e-06
1.37568e-06
1.52233e-06
1.17245e-06
1.40606e-06
1.00773e-06
1.30756e-06
9.05453e-07
1.19748e-06
9.01299e-07
8.10858e-07
-5.62197e-06
1.58361e-05
-2.45452e-06
1.11036e-05
4.24829e-07
7.94893e-06
2.12242e-06
6.85316e-06
3.02544e-06
5.9316e-06
3.39225e-06
5.18568e-06
3.42585e-06
4.57689e-06
3.27561e-06
4.05525e-06
3.03817e-06
3.59119e-06
2.77029e-06
3.17049e-06
2.50295e-06
2.78597e-06
2.25162e-06
2.43379e-06
2.02304e-06
2.11195e-06
1.81935e-06
1.81971e-06
1.64073e-06
1.55763e-06
1.48768e-06
1.3272e-06
1.36516e-06
1.13112e-06
1.27975e-06
9.91292e-07
1.19007e-06
9.91176e-07
9.70383e-07
-8.46974e-06
3.00736e-07
2.88307e-06
3.84152e-06
4.05421e-06
3.91501e-06
3.62746e-06
3.29153e-06
2.95407e-06
2.63665e-06
2.34812e-06
2.09059e-06
1.86265e-06
1.6609e-06
1.48101e-06
1.31803e-06
1.16862e-06
1.0507e-06
1.03554e-06
)
;

boundaryField
{
    leftWall
    {
        type            calculated;
        value           nonuniform List<scalar> 
20
(
1.51937e-05
5.03629e-06
5.2985e-06
6.23332e-06
6.99273e-06
7.61306e-06
8.11192e-06
8.48569e-06
8.73357e-06
8.85708e-06
8.85708e-06
8.73357e-06
8.48569e-06
8.11192e-06
7.61306e-06
6.99273e-06
6.23331e-06
5.2985e-06
5.03629e-06
1.51937e-05
)
;
    }
    rightWall
    {
        type            calculated;
        value           nonuniform List<scalar> 
20
(
1.00296e-06
1.03061e-06
1.10706e-06
1.19674e-06
1.27285e-06
1.33818e-06
1.39333e-06
1.43668e-06
1.46657e-06
1.48182e-06
1.48182e-06
1.46657e-06
1.43668e-06
1.39333e-06
1.33818e-06
1.27285e-06
1.19674e-06
1.10706e-06
1.03061e-06
1.00296e-06
)
;
    }
    topWall
    {
        type            calculated;
        value           nonuniform List<scalar> 
20
(
1.56286e-05
6.50156e-06
7.7497e-06
7.30556e-06
6.54011e-06
5.78884e-06
5.11977e-06
4.52886e-06
4.00175e-06
3.52628e-06
3.09447e-06
2.70162e-06
2.34519e-06
2.02416e-06
1.73889e-06
1.49087e-06
1.28087e-06
1.10937e-06
1.0064e-06
1.00296e-06
)
;
    }
    bottomWall
    {
        type            calculated;
        value           nonuniform List<scalar> 
20
(
1.56286e-05
6.50155e-06
7.7497e-06
7.30556e-06
6.5401e-06
5.78883e-06
5.11976e-06
4.52885e-06
4.00174e-06
3.52627e-06
3.09446e-06
2.70161e-06
2.34518e-06
2.02415e-06
1.73888e-06
1.49086e-06
1.28087e-06
1.10937e-06
1.0064e-06
1.00296e-06
)
;
    }
    frontAndBackPlanes
    {
        type            empty;
    }
}


// ************************************************************************* //
