/*--------------------------------*- C++ -*----------------------------------*\
| =========                 |                                                 |
| \\      /  F ield         | OpenFOAM: The Open Source CFD Toolbox           |
|  \\    /   O peration     | Version:  2506                                  |
|   \\  /    A nd           | Website:  www.openfoam.com                      |
|    \\/     M anipulation  |                                                 |
\*---------------------------------------------------------------------------*/
FoamFile
{
    version     2.0;
    format      ascii;
    arch        "LSB;label=32;scalar=64";
    class       volScalarField;
    location    "0.774954";
    object      alphat;
}
// * * * * * * * * * * * * * * * * * * * * * * * * * * * * * * * * * * * * * //

dimensions      [1 -1 -1 0 0 0 0];

internalField   nonuniform List<scalar> 
200
(
0.409353
0.40743
0.403307
0.396445
0.386068
0.371119
0.349952
0.319049
0.267631
0.151327
4.403
4.3817
4.33585
4.25865
4.13855
3.95605
3.6743
3.20838
2.30026
0.267633
7.55224
7.50794
7.41221
7.24985
6.99447
6.60113
5.98778
4.986
3.2084
0.319053
9.65193
9.58691
9.44651
9.20866
8.83538
8.26332
7.3826
5.98781
3.67433
0.349957
11.0795
10.9969
10.819
10.5189
10.0508
9.34034
8.26335
6.60118
3.95609
0.371125
12.0578
11.961
11.7531
11.4041
10.8635
10.0509
8.83544
6.99454
4.13861
0.386074
12.7217
12.614
12.3833
11.9977
11.4042
10.519
9.20877
7.24994
4.25871
0.396451
13.1571
13.0416
12.7947
12.3834
11.7533
10.8192
9.44667
7.41235
4.33592
0.403314
13.4196
13.299
13.0418
12.6142
11.9613
10.9972
9.58716
7.50813
4.38179
0.407438
13.5428
13.4198
13.1575
12.7221
12.0583
11.0799
9.65229
7.55249
4.40312
0.409362
13.5428
13.4198
13.1575
12.7221
12.0583
11.0799
9.65229
7.55249
4.40312
0.409362
13.4196
13.299
13.0418
12.6142
11.9613
10.9972
9.58716
7.50813
4.38179
0.407438
13.1571
13.0416
12.7947
12.3834
11.7533
10.8192
9.44667
7.41234
4.33592
0.403314
12.7217
12.614
12.3833
11.9977
11.4042
10.519
9.20877
7.24994
4.25871
0.396451
12.0578
11.961
11.7531
11.4041
10.8635
10.0509
8.83544
6.99454
4.13861
0.386074
11.0795
10.9969
10.819
10.5189
10.0508
9.34034
8.26335
6.60118
3.95609
0.371125
9.65193
9.58691
9.44651
9.20866
8.83538
8.26332
7.3826
5.98781
3.67433
0.349957
7.55224
7.50794
7.41221
7.24985
6.99447
6.60113
5.98778
4.986
3.2084
0.319053
4.40299
4.3817
4.33585
4.25865
4.13855
3.95605
3.6743
3.20838
2.30026
0.267633
0.409353
0.40743
0.403307
0.396445
0.386068
0.371119
0.349952
0.319049
0.267631
0.151327
)
;

boundaryField
{
    leftWall
    {
        type            compressible::alphatWallFunction;
        value           nonuniform List<scalar> 0();
    }
    rightWall
    {
        type            compressible::alphatWallFunction;
        value           nonuniform List<scalar> 
20
(
0.0379569
0.0568898
0.0645717
0.0685643
0.0709098
0.0723436
0.0732219
0.0737472
0.0740404
0.0741712
0.0741712
0.0740404
0.0737472
0.0732219
0.0723436
0.0709098
0.0685643
0.0645717
0.0568898
0.0379569
)
;
    }
    topWall
    {
        type            compressible::alphatWallFunction;
        value           nonuniform List<scalar> 10(0.0741717 0.0740408 0.0737473 0.0732219 0.0723434 0.0709095 0.068564 0.0645714 0.0568896 0.0379569);
    }
    bottomWall
    {
        type            compressible::alphatWallFunction;
        value           nonuniform List<scalar> 10(0.0741717 0.0740408 0.0737473 0.0732219 0.0723434 0.0709095 0.068564 0.0645714 0.0568896 0.0379569);
    }
    frontAndBackPlanes
    {
        type            empty;
    }
    procBoundary0to1
    {
        type            processor;
        value           nonuniform List<scalar> 
20
(
0.40935
4.40295
7.55213
9.65176
11.0793
12.0575
12.7214
13.1568
13.4192
13.5425
13.5425
13.4192
13.1568
12.7214
12.0575
11.0793
9.65176
7.55213
4.40295
0.40935
)
;
    }
}


// ************************************************************************* //
