/*--------------------------------*- C++ -*----------------------------------*\
| =========                 |                                                 |
| \\      /  F ield         | OpenFOAM: The Open Source CFD Toolbox           |
|  \\    /   O peration     | Version:  2506                                  |
|   \\  /    A nd           | Website:  www.openfoam.com                      |
|    \\/     M anipulation  |                                                 |
\*---------------------------------------------------------------------------*/
FoamFile
{
    version     2.0;
    format      ascii;
    arch        "LSB;label=32;scalar=64";
    class       surfaceScalarField;
    location    "0.774954";
    object      phi;
}
// * * * * * * * * * * * * * * * * * * * * * * * * * * * * * * * * * * * * * //

dimensions      [1 0 -1 0 0 0 0];

oriented        oriented;

internalField   nonuniform List<scalar> 
370
(
3.07949e-06
-2.34914e-06
2.82874e-06
-2.07605e-06
2.58508e-06
-1.83446e-06
2.35179e-06
-1.62166e-06
2.12976e-06
-1.43749e-06
1.91816e-06
-1.28299e-06
1.71837e-06
-1.15988e-06
1.57228e-06
-1.10396e-06
1.64336e-06
-1.29521e-06
-1.55827e-06
2.94272e-06
-2.04275e-06
2.77031e-06
-1.79498e-06
2.58515e-06
-1.5787e-06
2.39935e-06
-1.39064e-06
2.22135e-06
-1.23095e-06
2.05864e-06
-1.10257e-06
1.92509e-06
-1.01558e-06
1.83757e-06
-1.01013e-06
1.70214e-06
-1.15636e-06
-1.18827e-06
2.69074e-06
-1.77278e-06
2.58599e-06
-1.54659e-06
2.45494e-06
-1.3526e-06
2.31341e-06
-1.18717e-06
2.17245e-06
-1.05019e-06
2.04e-06
-9.44947e-07
1.921e-06
-8.80925e-07
1.8022e-06
-8.81833e-07
1.61918e-06
-9.67896e-07
-9.81681e-07
2.51185e-06
-1.52288e-06
2.45798e-06
-1.31878e-06
2.3687e-06
-1.14661e-06
2.26127e-06
-1.00266e-06
2.14769e-06
-8.86422e-07
2.0353e-06
-8.00346e-07
1.92574e-06
-7.50986e-07
1.80797e-06
-7.51429e-07
1.65755e-06
-8.10004e-07
-8.29476e-07
2.39145e-06
-1.28054e-06
2.37454e-06
-1.10152e-06
2.31632e-06
-9.52467e-07
2.23436e-06
-8.29963e-07
2.1408e-06
-7.33172e-07
2.04276e-06
-6.63555e-07
1.94177e-06
-6.25181e-07
1.83151e-06
-6.25559e-07
1.70016e-06
-6.69261e-07
-6.90818e-07
2.3167e-06
-1.03714e-06
2.32509e-06
-8.87242e-07
2.28859e-06
-7.63586e-07
2.22449e-06
-6.633e-07
2.14476e-06
-5.85408e-07
2.05633e-06
-5.30599e-07
1.96113e-06
-5.01213e-07
1.85547e-06
-5.01621e-07
1.73203e-06
-5.34698e-07
-5.56093e-07
2.27649e-06
-7.87749e-07
2.30096e-06
-6.71095e-07
2.27856e-06
-5.75435e-07
2.22612e-06
-4.9858e-07
2.15526e-06
-4.39621e-07
2.07277e-06
-3.98767e-07
1.9809e-06
-3.77268e-07
1.87746e-06
-3.77665e-07
1.75732e-06
-4.0198e-07
-4.20841e-07
2.25937e-06
-5.30771e-07
2.29324e-06
-4.50884e-07
2.27926e-06
-3.85603e-07
2.2338e-06
-3.33473e-07
2.16819e-06
-2.93805e-07
2.08906e-06
-2.66592e-07
1.99886e-06
-2.52443e-07
1.89622e-06
-2.52778e-07
1.77691e-06
-2.68963e-07
-2.82943e-07
2.25473e-06
-2.67244e-07
2.29352e-06
-2.26648e-07
2.28404e-06
-1.93533e-07
2.24235e-06
-1.67177e-07
2.17951e-06
-1.47214e-07
2.10206e-06
-1.33594e-07
2.01254e-06
-1.26562e-07
1.90994e-06
-1.26759e-07
1.79033e-06
-1.3488e-07
-1.42292e-07
2.25456e-06
3.15688e-12
2.29538e-06
2.82187e-12
2.28781e-06
2.40172e-12
2.24772e-06
2.0069e-12
2.18604e-06
1.67077e-12
2.10925e-06
1.3947e-12
2.01992e-06
1.17037e-12
1.91717e-06
9.95448e-13
1.79714e-06
8.61698e-13
6.86948e-13
2.25456e-06
2.6725e-07
2.29538e-06
2.26653e-07
2.28781e-06
1.93538e-07
2.24772e-06
1.67181e-07
2.18604e-06
1.47217e-07
2.10925e-06
1.33597e-07
2.01992e-06
1.26565e-07
1.91717e-06
1.26761e-07
1.79714e-06
1.34881e-07
1.42293e-07
2.25473e-06
5.30776e-07
2.29352e-06
4.50889e-07
2.28404e-06
3.85607e-07
2.24235e-06
3.33476e-07
2.17951e-06
2.93808e-07
2.10206e-06
2.66595e-07
2.01254e-06
2.52445e-07
1.90994e-06
2.5278e-07
1.79033e-06
2.68964e-07
2.82944e-07
2.25937e-06
7.87753e-07
2.29324e-06
6.71099e-07
2.27926e-06
5.75438e-07
2.2338e-06
4.98583e-07
2.16819e-06
4.39624e-07
2.08906e-06
3.98769e-07
1.99886e-06
3.77269e-07
1.89622e-06
3.77666e-07
1.77691e-06
4.01981e-07
4.20842e-07
2.27649e-06
1.03714e-06
2.30096e-06
8.87244e-07
2.27856e-06
7.63589e-07
2.22612e-06
6.63301e-07
2.15525e-06
5.8541e-07
2.07277e-06
5.306e-07
1.9809e-06
5.01214e-07
1.87745e-06
5.01622e-07
1.75732e-06
5.34699e-07
5.56094e-07
2.3167e-06
1.28054e-06
2.32509e-06
1.10152e-06
2.28859e-06
9.52468e-07
2.22449e-06
8.29964e-07
2.14476e-06
7.33173e-07
2.05633e-06
6.63556e-07
1.96113e-06
6.25182e-07
1.85547e-06
6.25559e-07
1.73203e-06
6.69262e-07
6.90818e-07
2.39145e-06
1.52288e-06
2.37454e-06
1.31878e-06
2.31632e-06
1.14661e-06
2.23436e-06
1.00266e-06
2.1408e-06
8.86422e-07
2.04276e-06
8.00347e-07
1.94177e-06
7.50987e-07
1.83151e-06
7.51429e-07
1.70016e-06
8.10005e-07
8.29476e-07
2.51185e-06
1.77278e-06
2.45798e-06
1.54658e-06
2.3687e-06
1.3526e-06
2.26127e-06
1.18717e-06
2.14769e-06
1.05019e-06
2.0353e-06
9.44947e-07
1.92574e-06
8.80925e-07
1.80797e-06
8.81833e-07
1.65755e-06
9.67896e-07
9.81681e-07
2.69074e-06
2.04274e-06
2.58599e-06
1.79498e-06
2.45494e-06
1.57869e-06
2.31341e-06
1.39064e-06
2.17245e-06
1.23095e-06
2.04e-06
1.10257e-06
1.921e-06
1.01558e-06
1.8022e-06
1.01013e-06
1.61918e-06
1.15636e-06
1.18827e-06
2.94272e-06
2.34914e-06
2.77031e-06
2.07604e-06
2.58515e-06
1.83446e-06
2.39935e-06
1.62166e-06
2.22135e-06
1.43749e-06
2.05864e-06
1.28299e-06
1.92509e-06
1.15988e-06
1.83756e-06
1.10396e-06
1.70214e-06
1.29521e-06
1.55827e-06
3.07949e-06
2.82873e-06
2.58508e-06
2.35179e-06
2.12976e-06
1.91816e-06
1.71837e-06
1.57227e-06
1.64336e-06
)
;

boundaryField
{
    leftWall
    {
        type            calculated;
        value           nonuniform List<scalar> 0();
    }
    rightWall
    {
        type            calculated;
        value           nonuniform List<scalar> 
20
(
1.6009e-06
1.33335e-06
1.41487e-06
1.50869e-06
1.56587e-06
1.60259e-06
1.62811e-06
1.64564e-06
1.65669e-06
1.66206e-06
1.66206e-06
1.65669e-06
1.64564e-06
1.62811e-06
1.60259e-06
1.56587e-06
1.50869e-06
1.41487e-06
1.33335e-06
1.6009e-06
)
;
    }
    topWall
    {
        type            calculated;
        value           nonuniform List<scalar> 10(2.69559e-06 2.38803e-06 2.11666e-06 1.87889e-06 1.67414e-06 1.50334e-06 1.36472e-06 1.25279e-06 1.22536e-06 1.6009e-06);
    }
    bottomWall
    {
        type            calculated;
        value           nonuniform List<scalar> 10(2.69559e-06 2.38803e-06 2.11666e-06 1.87888e-06 1.67414e-06 1.50334e-06 1.36472e-06 1.25279e-06 1.22536e-06 1.6009e-06);
    }
    frontAndBackPlanes
    {
        type            empty;
    }
    procBoundary0to1
    {
        type            processor;
        value           nonuniform List<scalar> 
20
(
-3.32991e-06
-3.08446e-06
-2.74723e-06
-2.50711e-06
-2.34393e-06
-2.24089e-06
-2.18329e-06
-2.15636e-06
-2.14679e-06
-2.14463e-06
-2.14463e-06
-2.14679e-06
-2.15637e-06
-2.18329e-06
-2.24089e-06
-2.34393e-06
-2.50711e-06
-2.74723e-06
-3.08446e-06
-3.32991e-06
)
;
    }
}


// ************************************************************************* //
