/*--------------------------------*- C++ -*----------------------------------*\
| =========                 |                                                 |
| \\      /  F ield         | OpenFOAM: The Open Source CFD Toolbox           |
|  \\    /   O peration     | Version:  2506                                  |
|   \\  /    A nd           | Website:  www.openfoam.com                      |
|    \\/     M anipulation  |                                                 |
\*---------------------------------------------------------------------------*/
FoamFile
{
    version     2.0;
    format      ascii;
    arch        "LSB;label=32;scalar=64";
    class       volScalarField;
    location    "0.774954";
    object      T;
}
// * * * * * * * * * * * * * * * * * * * * * * * * * * * * * * * * * * * * * //

dimensions      [0 0 0 1 0 0 0];

internalField   nonuniform List<scalar> 
200
(
273.036
273.022
273.013
273.008
273.005
273.003
273.002
273.001
273
273
273.067
273.041
273.026
273.016
273.01
273.006
273.003
273.002
273.001
273
273.089
273.056
273.035
273.022
273.014
273.008
273.005
273.003
273.002
273.001
273.109
273.069
273.044
273.028
273.017
273.011
273.007
273.004
273.002
273.001
273.125
273.081
273.052
273.033
273.021
273.013
273.008
273.005
273.003
273.001
273.138
273.09
273.058
273.037
273.024
273.015
273.009
273.006
273.003
273.002
273.149
273.097
273.063
273.041
273.026
273.016
273.01
273.006
273.004
273.002
273.156
273.103
273.067
273.043
273.028
273.018
273.011
273.007
273.004
273.002
273.161
273.106
273.069
273.045
273.029
273.018
273.012
273.007
273.004
273.002
273.163
273.108
273.071
273.046
273.03
273.019
273.012
273.007
273.005
273.002
273.163
273.108
273.071
273.046
273.03
273.019
273.012
273.007
273.005
273.002
273.161
273.106
273.069
273.045
273.029
273.018
273.012
273.007
273.004
273.002
273.156
273.103
273.067
273.043
273.028
273.018
273.011
273.007
273.004
273.002
273.149
273.097
273.063
273.041
273.026
273.016
273.01
273.006
273.004
273.002
273.138
273.09
273.058
273.037
273.024
273.015
273.009
273.006
273.003
273.002
273.125
273.081
273.052
273.033
273.021
273.013
273.008
273.005
273.003
273.001
273.109
273.069
273.044
273.028
273.017
273.011
273.007
273.004
273.002
273.001
273.089
273.056
273.035
273.022
273.014
273.008
273.005
273.003
273.002
273.001
273.067
273.041
273.026
273.016
273.01
273.006
273.003
273.002
273.001
273
273.036
273.022
273.013
273.008
273.005
273.003
273.002
273.001
273
273
)
;

boundaryField
{
    leftWall
    {
        type            fixedValue;
        value           nonuniform List<scalar> 0();
    }
    rightWall
    {
        type            fixedValue;
        value           uniform 273;
    }
    topWall
    {
        type            fixedValue;
        value           uniform 273;
    }
    bottomWall
    {
        type            fixedValue;
        value           uniform 273;
    }
    frontAndBackPlanes
    {
        type            empty;
    }
    procBoundary0to1
    {
        type            processor;
        value           nonuniform List<scalar> 
20
(
273.059
273.107
273.141
273.169
273.192
273.21
273.224
273.234
273.241
273.244
273.244
273.241
273.234
273.224
273.21
273.192
273.169
273.141
273.107
273.059
)
;
    }
}


// ************************************************************************* //
