/*--------------------------------*- C++ -*----------------------------------*\
| =========                 |                                                 |
| \\      /  F ield         | OpenFOAM: The Open Source CFD Toolbox           |
|  \\    /   O peration     | Version:  2506                                  |
|   \\  /    A nd           | Website:  www.openfoam.com                      |
|    \\/     M anipulation  |                                                 |
\*---------------------------------------------------------------------------*/
FoamFile
{
    version     2.0;
    format      ascii;
    arch        "LSB;label=32;scalar=64";
    class       volVectorField;
    location    "0.774954";
    object      U;
}
// * * * * * * * * * * * * * * * * * * * * * * * * * * * * * * * * * * * * * //

dimensions      [0 1 -1 0 0 0 0];

internalField   nonuniform List<vector> 
200
(
(2.56239e-05 -3.73703e-05 0)
(2.35991e-05 -3.29703e-05 0)
(2.16118e-05 -2.9072e-05 0)
(1.97006e-05 -2.56389e-05 0)
(1.78816e-05 -2.26689e-05 0)
(1.61663e-05 -2.01764e-05 0)
(1.45287e-05 -1.81756e-05 0)
(1.28753e-05 -1.7063e-05 0)
(1.21611e-05 -1.90958e-05 0)
(2.41241e-05 -2.39914e-05 0)
(2.41572e-05 -1.75984e-05 0)
(2.28606e-05 -1.55155e-05 0)
(2.1404e-05 -1.36846e-05 0)
(1.99028e-05 -1.20809e-05 0)
(1.84383e-05 -1.07045e-05 0)
(1.70772e-05 -9.57735e-06 0)
(1.58423e-05 -8.77812e-06 0)
(1.46798e-05 -8.64567e-06 0)
(1.4281e-05 -9.87041e-06 0)
(2.22643e-05 -1.03688e-05 0)
(2.18423e-05 -1.4896e-05 0)
(2.11484e-05 -1.30394e-05 0)
(2.017e-05 -1.14349e-05 0)
(1.90555e-05 -1.00545e-05 0)
(1.79132e-05 -8.89887e-06 0)
(1.68181e-05 -7.99516e-06 0)
(1.57625e-05 -7.42411e-06 0)
(1.46475e-05 -7.41283e-06 0)
(1.40685e-05 -8.22577e-06 0)
(2.12781e-05 -8.41099e-06 0)
(2.01908e-05 -1.3094e-05 0)
(1.99425e-05 -1.1378e-05 0)
(1.93306e-05 -9.9203e-06 0)
(1.85164e-05 -8.69082e-06 0)
(1.76187e-05 -7.68731e-06 0)
(1.67124e-05 -6.93314e-06 0)
(1.57741e-05 -6.49117e-06 0)
(1.47177e-05 -6.49911e-06 0)
(1.42247e-05 -7.0638e-06 0)
(2.19777e-05 -7.24356e-06 0)
(1.90701e-05 -1.12163e-05 0)
(1.91407e-05 -9.67664e-06 0)
(1.87997e-05 -8.38782e-06 0)
(1.82104e-05 -7.32083e-06 0)
(1.7494e-05 -6.47001e-06 0)
(1.67244e-05 -5.85066e-06 0)
(1.58738e-05 -5.50367e-06 0)
(1.48762e-05 -5.50662e-06 0)
(1.44866e-05 -5.90874e-06 0)
(2.26922e-05 -6.08973e-06 0)
(1.83657e-05 -9.27489e-06 0)
(1.86517e-05 -7.95215e-06 0)
(1.84991e-05 -6.85718e-06 0)
(1.8068e-05 -5.9645e-06 0)
(1.74784e-05 -5.26647e-06 0)
(1.68017e-05 -4.77104e-06 0)
(1.6009e-05 -4.50239e-06 0)
(1.5048e-05 -4.50508e-06 0)
(1.47212e-05 -4.8077e-06 0)
(2.3242e-05 -4.98967e-06 0)
(1.79772e-05 -7.30501e-06 0)
(1.83985e-05 -6.23277e-06 0)
(1.83673e-05 -5.35176e-06 0)
(1.80396e-05 -4.64159e-06 0)
(1.75324e-05 -4.0944e-06 0)
(1.69145e-05 -3.71317e-06 0)
(1.6156e-05 -3.51121e-06 0)
(1.52135e-05 -3.51464e-06 0)
(1.49202e-05 -3.7433e-06 0)
(2.36813e-05 -3.91204e-06 0)
(1.78018e-05 -5.28211e-06 0)
(1.83009e-05 -4.49111e-06 0)
(1.83418e-05 -3.84411e-06 0)
(1.80764e-05 -3.3265e-06 0)
(1.76184e-05 -2.93168e-06 0)
(1.70348e-05 -2.66002e-06 0)
(1.62944e-05 -2.51829e-06 0)
(1.53589e-05 -2.52162e-06 0)
(1.50811e-05 -2.68398e-06 0)
(2.40198e-05 -2.82034e-06 0)
(1.77448e-05 -3.19877e-06 0)
(1.82841e-05 -2.71374e-06 0)
(1.83633e-05 -2.31797e-06 0)
(1.81314e-05 -2.00279e-06 0)
(1.76999e-05 -1.76386e-06 0)
(1.71341e-05 -1.6007e-06 0)
(1.64018e-05 -1.51638e-06 0)
(1.54673e-05 -1.51881e-06 0)
(1.51948e-05 -1.61648e-06 0)
(2.42507e-05 -1.70475e-06 0)
(1.77354e-05 -1.0715e-06 0)
(1.82911e-05 -9.08055e-07 0)
(1.83863e-05 -7.74834e-07 0)
(1.81687e-05 -6.68962e-07 0)
(1.77484e-05 -5.88938e-07 0)
(1.71899e-05 -5.34488e-07 0)
(1.64604e-05 -5.06477e-07 0)
(1.55252e-05 -5.0737e-07 0)
(1.52537e-05 -5.40034e-07 0)
(2.43677e-05 -5.70534e-07 0)
(1.77354e-05 1.07155e-06 0)
(1.82911e-05 9.081e-07 0)
(1.83863e-05 7.74872e-07 0)
(1.81687e-05 6.68994e-07 0)
(1.77484e-05 5.88965e-07 0)
(1.71899e-05 5.3451e-07 0)
(1.64604e-05 5.06495e-07 0)
(1.55251e-05 5.07385e-07 0)
(1.52537e-05 5.40047e-07 0)
(2.43677e-05 5.70545e-07 0)
(1.77449e-05 3.19882e-06 0)
(1.82841e-05 2.71378e-06 0)
(1.83633e-05 2.31801e-06 0)
(1.81314e-05 2.00282e-06 0)
(1.76999e-05 1.76389e-06 0)
(1.71341e-05 1.60072e-06 0)
(1.64018e-05 1.5164e-06 0)
(1.54673e-05 1.51882e-06 0)
(1.51948e-05 1.61649e-06 0)
(2.42507e-05 1.70476e-06 0)
(1.78018e-05 5.28215e-06 0)
(1.83009e-05 4.49115e-06 0)
(1.83418e-05 3.84414e-06 0)
(1.80764e-05 3.32653e-06 0)
(1.76184e-05 2.9317e-06 0)
(1.70348e-05 2.66003e-06 0)
(1.62944e-05 2.51831e-06 0)
(1.53589e-05 2.52163e-06 0)
(1.50811e-05 2.68399e-06 0)
(2.40198e-05 2.82035e-06 0)
(1.79772e-05 7.30504e-06 0)
(1.83985e-05 6.2328e-06 0)
(1.83673e-05 5.35178e-06 0)
(1.80396e-05 4.64161e-06 0)
(1.75324e-05 4.09441e-06 0)
(1.69145e-05 3.71318e-06 0)
(1.6156e-05 3.51122e-06 0)
(1.52135e-05 3.51465e-06 0)
(1.49202e-05 3.74331e-06 0)
(2.36813e-05 3.91205e-06 0)
(1.83657e-05 9.27491e-06 0)
(1.86518e-05 7.95216e-06 0)
(1.84991e-05 6.85719e-06 0)
(1.8068e-05 5.96451e-06 0)
(1.74783e-05 5.26648e-06 0)
(1.68017e-05 4.77105e-06 0)
(1.6009e-05 4.5024e-06 0)
(1.5048e-05 4.50508e-06 0)
(1.47211e-05 4.80771e-06 0)
(2.3242e-05 4.98967e-06 0)
(1.90701e-05 1.12164e-05 0)
(1.91407e-05 9.67664e-06 0)
(1.87997e-05 8.38782e-06 0)
(1.82104e-05 7.32083e-06 0)
(1.7494e-05 6.47001e-06 0)
(1.67244e-05 5.85067e-06 0)
(1.58738e-05 5.50367e-06 0)
(1.48762e-05 5.50663e-06 0)
(1.44866e-05 5.90874e-06 0)
(2.26922e-05 6.08973e-06 0)
(2.01908e-05 1.3094e-05 0)
(1.99425e-05 1.1378e-05 0)
(1.93306e-05 9.92029e-06 0)
(1.85164e-05 8.69082e-06 0)
(1.76187e-05 7.68731e-06 0)
(1.67124e-05 6.93314e-06 0)
(1.57741e-05 6.49117e-06 0)
(1.47177e-05 6.49911e-06 0)
(1.42247e-05 7.0638e-06 0)
(2.19776e-05 7.24356e-06 0)
(2.18423e-05 1.4896e-05 0)
(2.11484e-05 1.30394e-05 0)
(2.017e-05 1.14348e-05 0)
(1.90555e-05 1.00545e-05 0)
(1.79132e-05 8.89886e-06 0)
(1.68181e-05 7.99516e-06 0)
(1.57624e-05 7.42411e-06 0)
(1.46475e-05 7.41283e-06 0)
(1.40685e-05 8.22576e-06 0)
(2.12781e-05 8.41099e-06 0)
(2.41573e-05 1.75984e-05 0)
(2.28606e-05 1.55155e-05 0)
(2.1404e-05 1.36846e-05 0)
(1.99028e-05 1.20809e-05 0)
(1.84383e-05 1.07045e-05 0)
(1.70772e-05 9.57734e-06 0)
(1.58423e-05 8.77811e-06 0)
(1.46798e-05 8.64567e-06 0)
(1.4281e-05 9.8704e-06 0)
(2.22643e-05 1.03688e-05 0)
(2.56239e-05 3.73702e-05 0)
(2.35991e-05 3.29702e-05 0)
(2.16118e-05 2.9072e-05 0)
(1.97006e-05 2.56389e-05 0)
(1.78816e-05 2.26689e-05 0)
(1.61663e-05 2.01764e-05 0)
(1.45286e-05 1.81756e-05 0)
(1.28753e-05 1.7063e-05 0)
(1.21611e-05 1.90958e-05 0)
(2.4124e-05 2.39914e-05 0)
)
;

boundaryField
{
    leftWall
    {
        type            noSlip;
    }
    rightWall
    {
        type            noSlip;
    }
    topWall
    {
        type            noSlip;
    }
    bottomWall
    {
        type            noSlip;
    }
    frontAndBackPlanes
    {
        type            empty;
    }
    procBoundary0to1
    {
        type            processor;
        value           nonuniform List<vector> 
20
(
(2.76049e-05 -4.23481e-05 0)
(2.51225e-05 -1.99876e-05 0)
(2.20489e-05 -1.70654e-05 0)
(1.98656e-05 -1.5129e-05 0)
(1.8381e-05 -1.30609e-05 0)
(1.74404e-05 -1.08689e-05 0)
(1.69096e-05 -8.60064e-06 0)
(1.66555e-05 -6.23869e-06 0)
(1.65598e-05 -3.78532e-06 0)
(1.65351e-05 -1.26912e-06 0)
(1.65351e-05 1.26917e-06 0)
(1.65598e-05 3.78537e-06 0)
(1.66555e-05 6.23873e-06 0)
(1.69096e-05 8.60067e-06 0)
(1.74404e-05 1.08689e-05 0)
(1.8381e-05 1.30609e-05 0)
(1.98656e-05 1.5129e-05 0)
(2.20489e-05 1.70654e-05 0)
(2.51225e-05 1.99875e-05 0)
(2.76049e-05 4.2348e-05 0)
)
;
    }
}


// ************************************************************************* //
