/*--------------------------------*- C++ -*----------------------------------*\
| =========                 |                                                 |
| \\      /  F ield         | OpenFOAM: The Open Source CFD Toolbox           |
|  \\    /   O peration     | Version:  2506                                  |
|   \\  /    A nd           | Website:  www.openfoam.com                      |
|    \\/     M anipulation  |                                                 |
\*---------------------------------------------------------------------------*/
FoamFile
{
    version     2.0;
    format      ascii;
    arch        "LSB;label=32;scalar=64";
    class       surfaceScalarField;
    location    "2.909796161";
    object      phi;
}
// * * * * * * * * * * * * * * * * * * * * * * * * * * * * * * * * * * * * * //

dimensions      [1 0 -1 0 0 0 0];

oriented        oriented;

internalField   nonuniform List<scalar> 
370
(
2.3202e-06
-1.13829e-06
2.33557e-06
-1.00101e-06
2.32642e-06
-8.86154e-07
2.2942e-06
-7.93978e-07
2.23909e-06
-7.26724e-07
2.15942e-06
-6.87904e-07
2.06229e-06
-6.80316e-07
2.05537e-06
-7.63537e-07
2.57025e-06
-1.35265e-06
-2.63283e-06
1.91261e-06
-9.7302e-07
1.99842e-06
-8.43458e-07
2.06245e-06
-7.37474e-07
2.10739e-06
-6.54811e-07
2.13584e-06
-5.97519e-07
2.15141e-06
-5.70188e-07
2.17066e-06
-5.88822e-07
2.22823e-06
-7.31537e-07
2.12181e-06
-1.1777e-06
-1.68725e-06
1.56352e-06
-8.31906e-07
1.69274e-06
-7.13652e-07
1.80339e-06
-6.18908e-07
1.89692e-06
-5.47222e-07
1.97454e-06
-5.00249e-07
2.0377e-06
-4.82767e-07
2.08701e-06
-5.1002e-07
2.08997e-06
-6.27378e-07
1.88935e-06
-8.90634e-07
-1.14293e-06
1.28731e-06
-7.04039e-07
1.44349e-06
-6.00005e-07
1.58374e-06
-5.18044e-07
1.70797e-06
-4.57655e-07
1.81582e-06
-4.1996e-07
1.90584e-06
-4.08493e-07
1.97098e-06
-4.32946e-07
1.97998e-06
-5.1476e-07
1.85978e-06
-6.69199e-07
-7.89735e-07
1.0596e-06
-5.83185e-07
1.23292e-06
-4.95251e-07
1.3922e-06
-4.26858e-07
1.53605e-06
-3.77494e-07
1.66283e-06
-3.477e-07
1.76949e-06
-3.39417e-07
1.84805e-06
-3.57398e-07
1.87689e-06
-4.09724e-07
1.81674e-06
-4.95411e-07
-5.42032e-07
8.71205e-07
-4.65693e-07
1.05534e-06
-3.94869e-07
1.22668e-06
-3.40291e-07
1.38291e-06
-3.01443e-07
1.52155e-06
-2.78374e-07
1.63904e-06
-2.71721e-07
1.72859e-06
-2.82964e-07
1.77631e-06
-3.13404e-07
1.76118e-06
-3.56403e-07
-3.65731e-07
7.19882e-07
-3.49415e-07
9.10618e-07
-2.96159e-07
1.0894e-06
-2.55369e-07
1.25331e-06
-2.26566e-07
1.39949e-06
-2.09503e-07
1.52454e-06
-2.04037e-07
1.62341e-06
-2.09955e-07
1.68799e-06
-2.25833e-07
1.70823e-06
-2.44627e-07
-2.38275e-07
6.05614e-07
-2.33235e-07
8.00209e-07
-1.97708e-07
9.83416e-07
-1.70597e-07
1.15199e-06
-1.51526e-07
1.303e-06
-1.40174e-07
1.43348e-06
-1.36133e-07
1.53999e-06
-1.38671e-07
1.61831e-06
-1.45922e-07
1.66438e-06
-1.52588e-07
-1.42842e-07
5.28941e-07
-1.16747e-07
7.25623e-07
-9.89842e-08
9.1128e-07
-8.54553e-08
1.08253e-06
-7.59515e-08
1.23647e-06
-7.02628e-08
1.37057e-06
-6.80899e-08
1.48253e-06
-6.89008e-08
1.57042e-06
-7.15305e-08
1.63321e-06
-7.32072e-08
-6.68229e-08
4.90434e-07
2.84957e-12
6.8802e-07
2.81052e-12
8.74763e-07
2.73181e-12
1.04723e-06
2.63923e-12
1.20257e-06
2.54339e-12
1.3385e-06
2.46076e-12
1.4533e-06
2.40699e-12
1.54607e-06
2.38608e-12
1.61706e-06
2.41455e-12
2.41282e-12
4.90434e-07
1.16753e-07
6.8802e-07
9.89898e-08
8.74763e-07
8.54607e-08
1.04723e-06
7.59567e-08
1.20257e-06
7.02678e-08
1.3385e-06
6.80948e-08
1.4533e-06
6.89056e-08
1.54607e-06
7.15352e-08
1.61705e-06
7.3212e-08
6.68277e-08
5.28941e-07
2.3324e-07
7.25622e-07
1.97713e-07
9.1128e-07
1.70602e-07
1.08253e-06
1.51531e-07
1.23647e-06
1.40179e-07
1.37057e-06
1.36138e-07
1.48253e-06
1.38676e-07
1.57042e-06
1.45926e-07
1.63321e-06
1.52593e-07
1.42847e-07
6.05614e-07
3.4942e-07
8.00208e-07
2.96164e-07
9.83416e-07
2.55374e-07
1.15199e-06
2.26571e-07
1.303e-06
2.09508e-07
1.43348e-06
2.04042e-07
1.53999e-06
2.0996e-07
1.61831e-06
2.25837e-07
1.66438e-06
2.44632e-07
2.38279e-07
7.19882e-07
4.65698e-07
9.10617e-07
3.94874e-07
1.0894e-06
3.40296e-07
1.25331e-06
3.01448e-07
1.39949e-06
2.78379e-07
1.52454e-06
2.71725e-07
1.62341e-06
2.82968e-07
1.68799e-06
3.13408e-07
1.70823e-06
3.56407e-07
3.65734e-07
8.71204e-07
5.8319e-07
1.05534e-06
4.95256e-07
1.22668e-06
4.26862e-07
1.3829e-06
3.77499e-07
1.52155e-06
3.47705e-07
1.63904e-06
3.39421e-07
1.72859e-06
3.57402e-07
1.77631e-06
4.09728e-07
1.76118e-06
4.95415e-07
5.42034e-07
1.05959e-06
7.04044e-07
1.23292e-06
6.0001e-07
1.3922e-06
5.18048e-07
1.53605e-06
4.57659e-07
1.66283e-06
4.19964e-07
1.76949e-06
4.08497e-07
1.84805e-06
4.32949e-07
1.87689e-06
5.14763e-07
1.81674e-06
6.69202e-07
7.89737e-07
1.28731e-06
8.3191e-07
1.44349e-06
7.13656e-07
1.58374e-06
6.18912e-07
1.70797e-06
5.47226e-07
1.81582e-06
5.00253e-07
1.90584e-06
4.8277e-07
1.97098e-06
5.10023e-07
1.97998e-06
6.27381e-07
1.85978e-06
8.90636e-07
1.14293e-06
1.56352e-06
9.73025e-07
1.69274e-06
8.43462e-07
1.80339e-06
7.37478e-07
1.89692e-06
6.54815e-07
1.97454e-06
5.97522e-07
2.0377e-06
5.70191e-07
2.08701e-06
5.88825e-07
2.08997e-06
7.31539e-07
1.88935e-06
1.17771e-06
1.68725e-06
1.91261e-06
1.13829e-06
1.99842e-06
1.00101e-06
2.06245e-06
8.86157e-07
2.10739e-06
7.93982e-07
2.13584e-06
7.26727e-07
2.15141e-06
6.87907e-07
2.17066e-06
6.80319e-07
2.22823e-06
7.63539e-07
2.12181e-06
1.35265e-06
2.63283e-06
2.3202e-06
2.33557e-06
2.32642e-06
2.2942e-06
2.23909e-06
2.15942e-06
2.06229e-06
2.05537e-06
2.57025e-06
)
;

boundaryField
{
    leftWall
    {
        type            calculated;
        value           nonuniform List<scalar> 0();
    }
    rightWall
    {
        type            calculated;
        value           nonuniform List<scalar> 
20
(
2.60755e-06
1.21772e-06
1.40537e-06
1.58132e-06
1.65555e-06
1.68103e-06
1.68459e-06
1.6785e-06
1.67056e-06
1.66551e-06
1.66551e-06
1.67056e-06
1.6785e-06
1.68459e-06
1.68103e-06
1.65555e-06
1.58132e-06
1.40537e-06
1.21772e-06
2.60755e-06
)
;
    }
    topWall
    {
        type            calculated;
        value           nonuniform List<scalar> 10(1.33934e-06 1.19681e-06 1.07605e-06 9.79131e-07 9.09464e-07 8.72228e-07 8.60988e-07 8.33865e-07 8.79641e-07 2.60755e-06);
    }
    bottomWall
    {
        type            calculated;
        value           nonuniform List<scalar> 10(1.33935e-06 1.19681e-06 1.07606e-06 9.79134e-07 9.09467e-07 8.7223e-07 8.6099e-07 8.33866e-07 8.79642e-07 2.60755e-06);
    }
    frontAndBackPlanes
    {
        type            empty;
    }
    procBoundary0to1
    {
        type            processor;
        value           nonuniform List<scalar> 
20
(
-2.27715e-06
-1.80204e-06
-1.41445e-06
-1.11561e-06
-8.74007e-07
-6.7706e-07
-5.20628e-07
-4.03463e-07
-3.2528e-07
-2.8614e-07
-2.8614e-07
-3.2528e-07
-4.03462e-07
-5.20627e-07
-6.77059e-07
-8.74006e-07
-1.11561e-06
-1.41445e-06
-1.80204e-06
-2.27715e-06
)
;
    }
}


// ************************************************************************* //
