/*--------------------------------*- C++ -*----------------------------------*\
| =========                 |                                                 |
| \\      /  F ield         | OpenFOAM: The Open Source CFD Toolbox           |
|  \\    /   O peration     | Version:  2506                                  |
|   \\  /    A nd           | Website:  www.openfoam.com                      |
|    \\/     M anipulation  |                                                 |
\*---------------------------------------------------------------------------*/
FoamFile
{
    version     2.0;
    format      ascii;
    arch        "LSB;label=32;scalar=64";
    class       volScalarField;
    location    "2.909796161";
    object      T;
}
// * * * * * * * * * * * * * * * * * * * * * * * * * * * * * * * * * * * * * //

dimensions      [0 0 0 1 0 0 0];

internalField   nonuniform List<scalar> 
200
(
273.68
273.544
273.433
273.342
273.268
273.206
273.155
273.111
273.068
273.017
273.861
273.699
273.566
273.455
273.364
273.288
273.225
273.171
273.123
273.068
273.966
273.792
273.647
273.526
273.426
273.343
273.273
273.215
273.163
273.104
274.047
273.864
273.711
273.583
273.477
273.389
273.315
273.253
273.197
273.133
274.112
273.923
273.764
273.632
273.521
273.428
273.351
273.286
273.227
273.158
274.164
273.971
273.809
273.672
273.558
273.462
273.382
273.314
273.253
273.18
274.205
274.01
273.844
273.705
273.588
273.49
273.407
273.337
273.274
273.197
274.235
274.038
273.871
273.729
273.61
273.511
273.427
273.355
273.29
273.21
274.255
274.057
273.888
273.746
273.626
273.525
273.44
273.367
273.3
273.219
274.265
274.066
273.897
273.754
273.633
273.532
273.446
273.373
273.306
273.224
274.265
274.066
273.897
273.754
273.633
273.532
273.446
273.373
273.306
273.224
274.255
274.057
273.888
273.746
273.626
273.525
273.44
273.367
273.3
273.219
274.235
274.038
273.871
273.729
273.61
273.511
273.427
273.355
273.29
273.21
274.205
274.01
273.844
273.705
273.588
273.49
273.407
273.337
273.274
273.197
274.164
273.971
273.809
273.672
273.558
273.462
273.382
273.314
273.253
273.18
274.112
273.923
273.764
273.632
273.521
273.428
273.351
273.286
273.227
273.158
274.047
273.864
273.711
273.583
273.477
273.389
273.315
273.253
273.197
273.133
273.966
273.792
273.647
273.526
273.426
273.343
273.273
273.215
273.163
273.104
273.861
273.699
273.566
273.455
273.364
273.288
273.225
273.171
273.123
273.068
273.68
273.544
273.433
273.342
273.268
273.206
273.155
273.111
273.068
273.017
)
;

boundaryField
{
    leftWall
    {
        type            fixedValue;
        value           nonuniform List<scalar> 0();
    }
    rightWall
    {
        type            fixedValue;
        value           uniform 273;
    }
    topWall
    {
        type            fixedValue;
        value           uniform 273;
    }
    bottomWall
    {
        type            fixedValue;
        value           uniform 273;
    }
    frontAndBackPlanes
    {
        type            empty;
    }
    procBoundary0to1
    {
        type            processor;
        value           nonuniform List<scalar> 
20
(
273.846
274.057
274.177
274.266
274.337
274.393
274.436
274.468
274.488
274.498
274.498
274.488
274.468
274.436
274.393
274.337
274.266
274.177
274.057
273.846
)
;
    }
}


// ************************************************************************* //
