/*--------------------------------*- C++ -*----------------------------------*\
| =========                 |                                                 |
| \\      /  F ield         | OpenFOAM: The Open Source CFD Toolbox           |
|  \\    /   O peration     | Version:  2506                                  |
|   \\  /    A nd           | Website:  www.openfoam.com                      |
|    \\/     M anipulation  |                                                 |
\*---------------------------------------------------------------------------*/
FoamFile
{
    version     2.0;
    format      ascii;
    arch        "LSB;label=32;scalar=64";
    class       volVectorField;
    location    "2.909796161";
    object      U;
}
// * * * * * * * * * * * * * * * * * * * * * * * * * * * * * * * * * * * * * //

dimensions      [0 1 -1 0 0 0 0];

internalField   nonuniform List<vector> 
200
(
(1.84209e-05 -1.75265e-05 0)
(1.86473e-05 -1.55193e-05 0)
(1.8668e-05 -1.38477e-05 0)
(1.8499e-05 -1.25237e-05 0)
(1.81519e-05 -1.15875e-05 0)
(1.7664e-05 -1.10946e-05 0)
(1.70059e-05 -1.10472e-05 0)
(1.5771e-05 -1.2091e-05 0)
(1.39576e-05 -2.0126e-05 0)
(4.88642e-05 -4.97071e-05 0)
(1.48922e-05 -8.58871e-06 0)
(1.56706e-05 -7.47579e-06 0)
(1.62641e-05 -6.5563e-06 0)
(1.66936e-05 -5.82932e-06 0)
(1.69834e-05 -5.3123e-06 0)
(1.71775e-05 -5.04304e-06 0)
(1.729e-05 -5.14614e-06 0)
(1.71265e-05 -6.23989e-06 0)
(1.72181e-05 -9.91385e-06 0)
(2.83223e-05 -1.31831e-05 0)
(1.19385e-05 -7.06525e-06 0)
(1.3048e-05 -6.08411e-06 0)
(1.40034e-05 -5.29123e-06 0)
(1.4816e-05 -4.68357e-06 0)
(1.55018e-05 -4.27635e-06 0)
(1.60764e-05 -4.11156e-06 0)
(1.64779e-05 -4.32362e-06 0)
(1.65037e-05 -5.3585e-06 0)
(1.6593e-05 -7.89977e-06 0)
(2.46516e-05 -1.04581e-05 0)
(9.63108e-06 -6.09321e-06 0)
(1.09423e-05 -5.20503e-06 0)
(1.21266e-05 -4.50045e-06 0)
(1.31831e-05 -3.97552e-06 0)
(1.41162e-05 -3.64139e-06 0)
(1.49187e-05 -3.53194e-06 0)
(1.54914e-05 -3.74527e-06 0)
(1.56568e-05 -4.53017e-06 0)
(1.60351e-05 -6.14991e-06 0)
(2.47326e-05 -7.59059e-06 0)
(7.74838e-06 -5.14172e-06 0)
(9.18641e-06 -4.37114e-06 0)
(1.05177e-05 -3.76868e-06 0)
(1.17311e-05 -3.33021e-06 0)
(1.28204e-05 -3.06212e-06 0)
(1.37654e-05 -2.9855e-06 0)
(1.44586e-05 -3.15414e-06 0)
(1.47612e-05 -3.67376e-06 0)
(1.53902e-05 -4.58714e-06 0)
(2.45749e-05 -5.22383e-06 0)
(6.20343e-06 -4.19026e-06 0)
(7.72077e-06 -3.55393e-06 0)
(9.14534e-06 -3.06181e-06 0)
(1.04582e-05 -2.70968e-06 0)
(1.16454e-05 -2.49944e-06 0)
(1.26804e-05 -2.44016e-06 0)
(1.34606e-05 -2.55296e-06 0)
(1.38819e-05 -2.86644e-06 0)
(1.47058e-05 -3.34091e-06 0)
(2.41372e-05 -3.53959e-06 0)
(4.97019e-06 -3.25604e-06 0)
(6.53566e-06 -2.75947e-06 0)
(8.01765e-06 -2.37831e-06 0)
(9.39198e-06 -2.10842e-06 0)
(1.06401e-05 -1.94849e-06 0)
(1.17341e-05 -1.8993e-06 0)
(1.2581e-05 -1.96317e-06 0)
(1.31056e-05 -2.13449e-06 0)
(1.40879e-05 -2.35521e-06 0)
(2.36479e-05 -2.35359e-06 0)
(4.04315e-06 -2.32847e-06 0)
(5.63645e-06 -1.97339e-06 0)
(7.15234e-06 -1.70211e-06 0)
(8.56352e-06 -1.51104e-06 0)
(9.84935e-06 -1.39745e-06 0)
(1.09829e-05 -1.35823e-06 0)
(1.18811e-05 -1.38785e-06 0)
(1.24902e-05 -1.4706e-06 0)
(1.35942e-05 -1.55621e-06 0)
(2.32117e-05 -1.48486e-06 0)
(3.42302e-06 -1.39916e-06 0)
(5.03117e-06 -1.18609e-06 0)
(6.56561e-06 -1.02373e-06 0)
(7.99744e-06 -9.09616e-07 0)
(9.30527e-06 -8.41322e-07 0)
(1.04638e-05 -8.15466e-07 0)
(1.13978e-05 -8.26053e-07 0)
(1.20665e-05 -8.59789e-07 0)
(1.32522e-05 -8.8428e-07 0)
(2.28889e-05 -8.16351e-07 0)
(3.11211e-06 -4.66798e-07 0)
(4.72662e-06 -3.95786e-07 0)
(6.2692e-06 -3.41738e-07 0)
(7.71028e-06 -3.03771e-07 0)
(9.02832e-06 -2.80942e-07 0)
(1.01992e-05 -2.7187e-07 0)
(1.11515e-05 -2.74134e-07 0)
(1.1851e-05 -2.82739e-07 0)
(1.30775e-05 -2.86614e-07 0)
(2.27183e-05 -2.60048e-07 0)
(3.11211e-06 4.66844e-07 0)
(4.72662e-06 3.95831e-07 0)
(6.2692e-06 3.41781e-07 0)
(7.71028e-06 3.03813e-07 0)
(9.02832e-06 2.80983e-07 0)
(1.01992e-05 2.71909e-07 0)
(1.11515e-05 2.74173e-07 0)
(1.1851e-05 2.82777e-07 0)
(1.30775e-05 2.86653e-07 0)
(2.27183e-05 2.60087e-07 0)
(3.42301e-06 1.3992e-06 0)
(5.03117e-06 1.18613e-06 0)
(6.56561e-06 1.02378e-06 0)
(7.99744e-06 9.09657e-07 0)
(9.30527e-06 8.41362e-07 0)
(1.04638e-05 8.15504e-07 0)
(1.13978e-05 8.26091e-07 0)
(1.20665e-05 8.59826e-07 0)
(1.32522e-05 8.84318e-07 0)
(2.28889e-05 8.16388e-07 0)
(4.04314e-06 2.32852e-06 0)
(5.63645e-06 1.97343e-06 0)
(7.15234e-06 1.70215e-06 0)
(8.56352e-06 1.51108e-06 0)
(9.84935e-06 1.39749e-06 0)
(1.09829e-05 1.35827e-06 0)
(1.18811e-05 1.38789e-06 0)
(1.24902e-05 1.47063e-06 0)
(1.35942e-05 1.55625e-06 0)
(2.32117e-05 1.48489e-06 0)
(4.97018e-06 3.25608e-06 0)
(6.53565e-06 2.75951e-06 0)
(8.01764e-06 2.37835e-06 0)
(9.39197e-06 2.10846e-06 0)
(1.06401e-05 1.94852e-06 0)
(1.17341e-05 1.89934e-06 0)
(1.2581e-05 1.9632e-06 0)
(1.31056e-05 2.13453e-06 0)
(1.40879e-05 2.35524e-06 0)
(2.36479e-05 2.35362e-06 0)
(6.20342e-06 4.1903e-06 0)
(7.72077e-06 3.55397e-06 0)
(9.14533e-06 3.06185e-06 0)
(1.04582e-05 2.70971e-06 0)
(1.16453e-05 2.49947e-06 0)
(1.26804e-05 2.44019e-06 0)
(1.34606e-05 2.553e-06 0)
(1.38819e-05 2.86647e-06 0)
(1.47058e-05 3.34094e-06 0)
(2.41371e-05 3.53962e-06 0)
(7.74838e-06 5.14177e-06 0)
(9.1864e-06 4.37118e-06 0)
(1.05177e-05 3.76872e-06 0)
(1.17311e-05 3.33024e-06 0)
(1.28204e-05 3.06216e-06 0)
(1.37654e-05 2.98553e-06 0)
(1.44586e-05 3.15417e-06 0)
(1.47612e-05 3.67379e-06 0)
(1.53902e-05 4.58717e-06 0)
(2.45749e-05 5.22385e-06 0)
(9.63107e-06 6.09325e-06 0)
(1.09423e-05 5.20507e-06 0)
(1.21266e-05 4.50048e-06 0)
(1.31831e-05 3.97555e-06 0)
(1.41162e-05 3.64142e-06 0)
(1.49187e-05 3.53197e-06 0)
(1.54914e-05 3.74529e-06 0)
(1.56568e-05 4.5302e-06 0)
(1.60351e-05 6.14993e-06 0)
(2.47326e-05 7.59061e-06 0)
(1.19385e-05 7.06529e-06 0)
(1.30479e-05 6.08414e-06 0)
(1.40034e-05 5.29126e-06 0)
(1.4816e-05 4.6836e-06 0)
(1.55018e-05 4.27638e-06 0)
(1.60764e-05 4.11159e-06 0)
(1.64778e-05 4.32365e-06 0)
(1.65036e-05 5.35852e-06 0)
(1.6593e-05 7.89979e-06 0)
(2.46516e-05 1.04581e-05 0)
(1.48922e-05 8.58874e-06 0)
(1.56706e-05 7.47582e-06 0)
(1.62641e-05 6.55633e-06 0)
(1.66936e-05 5.82935e-06 0)
(1.69834e-05 5.31233e-06 0)
(1.71775e-05 5.04306e-06 0)
(1.729e-05 5.14616e-06 0)
(1.71265e-05 6.23991e-06 0)
(1.72181e-05 9.91386e-06 0)
(2.83222e-05 1.31831e-05 0)
(1.84209e-05 1.75265e-05 0)
(1.86473e-05 1.55194e-05 0)
(1.8668e-05 1.38477e-05 0)
(1.8499e-05 1.25238e-05 0)
(1.81519e-05 1.15875e-05 0)
(1.7664e-05 1.10946e-05 0)
(1.70059e-05 1.10472e-05 0)
(1.5771e-05 1.20911e-05 0)
(1.39576e-05 2.0126e-05 0)
(4.88642e-05 4.97071e-05 0)
)
;

boundaryField
{
    leftWall
    {
        type            noSlip;
    }
    rightWall
    {
        type            noSlip;
    }
    topWall
    {
        type            noSlip;
    }
    bottomWall
    {
        type            noSlip;
    }
    frontAndBackPlanes
    {
        type            empty;
    }
    procBoundary0to1
    {
        type            processor;
        value           nonuniform List<vector> 
20
(
(1.79545e-05 -1.98691e-05 0)
(1.39028e-05 -9.90924e-06 0)
(1.06657e-05 -8.25197e-06 0)
(8.19883e-06 -7.18107e-06 0)
(6.221e-06 -6.09333e-06 0)
(4.61856e-06 -4.98052e-06 0)
(3.35169e-06 -3.87519e-06 0)
(2.40609e-06 -2.7724e-06 0)
(1.77662e-06 -1.66598e-06 0)
(1.46193e-06 -5.55795e-07 0)
(1.46193e-06 5.5584e-07 0)
(1.77661e-06 1.66602e-06 0)
(2.40609e-06 2.77244e-06 0)
(3.35168e-06 3.87523e-06 0)
(4.61856e-06 4.98056e-06 0)
(6.22099e-06 6.09338e-06 0)
(8.19882e-06 7.18111e-06 0)
(1.06657e-05 8.25201e-06 0)
(1.39028e-05 9.90928e-06 0)
(1.79545e-05 1.98691e-05 0)
)
;
    }
}


// ************************************************************************* //
