/*--------------------------------*- C++ -*----------------------------------*\
| =========                 |                                                 |
| \\      /  F ield         | OpenFOAM: The Open Source CFD Toolbox           |
|  \\    /   O peration     | Version:  2506                                  |
|   \\  /    A nd           | Website:  www.openfoam.com                      |
|    \\/     M anipulation  |                                                 |
\*---------------------------------------------------------------------------*/
FoamFile
{
    version     2.0;
    format      ascii;
    arch        "LSB;label=32;scalar=64";
    class       volScalarField;
    location    "0.989945";
    object      alphat;
}
// * * * * * * * * * * * * * * * * * * * * * * * * * * * * * * * * * * * * * //

dimensions      [1 -1 -1 0 0 0 0];

internalField   nonuniform List<scalar> 
200
(
0.36624
0.364018
0.35943
0.352193
0.341859
0.327694
0.30832
0.280567
0.234827
0.131884
4.02719
4.00269
3.95129
3.86788
3.74332
3.56129
3.28981
2.85407
2.02715
0.234831
7.08531
7.03309
6.92294
6.74256
6.47003
6.06683
5.46089
4.50304
2.85409
0.280573
9.20408
9.12677
8.96356
8.69614
8.2923
7.69714
6.81376
5.46093
3.28986
0.308327
10.6947
10.5961
10.3881
10.0482
9.53709
8.78991
7.69718
6.06691
3.56136
0.327703
11.7512
11.6353
11.3913
10.9937
10.3992
9.53715
8.29241
6.47015
3.74341
0.341869
12.4928
12.3635
12.0918
11.6505
10.9938
10.0483
8.69631
6.74272
3.86799
0.352204
12.9952
12.8561
12.5644
12.0919
11.3915
10.3884
8.96382
6.92316
3.95142
0.359443
13.3063
13.161
12.8563
12.3639
11.6357
10.5965
9.12715
7.03339
4.00285
0.364033
13.4551
13.3066
12.9957
12.4935
11.7519
10.6953
9.20463
7.08571
4.02739
0.366258
13.4551
13.3066
12.9957
12.4935
11.7519
10.6953
9.20463
7.08571
4.02739
0.366258
13.3063
13.161
12.8563
12.3639
11.6357
10.5965
9.12715
7.03339
4.00285
0.364033
12.9952
12.8561
12.5644
12.0919
11.3915
10.3884
8.96382
6.92316
3.95142
0.359443
12.4929
12.3635
12.0918
11.6505
10.9938
10.0483
8.69631
6.74272
3.86799
0.352204
11.7512
11.6353
11.3913
10.9937
10.3992
9.53715
8.29241
6.47015
3.74341
0.341869
10.6947
10.5961
10.3881
10.0482
9.53709
8.78991
7.69718
6.06691
3.56136
0.327703
9.20408
9.12677
8.96356
8.69614
8.2923
7.69714
6.81376
5.46093
3.28986
0.308327
7.08531
7.03309
6.92294
6.74256
6.47003
6.06683
5.46089
4.50304
2.85409
0.280573
4.02719
4.00269
3.95129
3.86788
3.74332
3.56129
3.28981
2.85407
2.02715
0.234831
0.36624
0.364018
0.35943
0.352193
0.341859
0.327694
0.30832
0.280567
0.234827
0.131884
)
;

boundaryField
{
    leftWall
    {
        type            compressible::alphatWallFunction;
        value           nonuniform List<scalar> 0();
    }
    rightWall
    {
        type            compressible::alphatWallFunction;
        value           nonuniform List<scalar> 
20
(
0.0318437
0.0493606
0.0565564
0.0604573
0.0628756
0.0644492
0.0654806
0.06614
0.0665302
0.0667113
0.0667113
0.0665302
0.06614
0.0654806
0.0644492
0.0628756
0.0604573
0.0565564
0.0493606
0.0318437
)
;
    }
    topWall
    {
        type            compressible::alphatWallFunction;
        value           nonuniform List<scalar> 10(0.0667111 0.0665299 0.0661396 0.0654801 0.0644487 0.062875 0.0604567 0.056556 0.0493604 0.0318437);
    }
    bottomWall
    {
        type            compressible::alphatWallFunction;
        value           nonuniform List<scalar> 10(0.0667111 0.0665299 0.0661396 0.0654801 0.0644487 0.062875 0.0604567 0.056556 0.0493604 0.0318437);
    }
    frontAndBackPlanes
    {
        type            empty;
    }
    procBoundary0to1
    {
        type            processor;
        value           nonuniform List<scalar> 
20
(
0.366236
4.02713
7.08517
9.20387
10.6944
11.7509
12.4925
12.9948
13.3059
13.4547
13.4547
13.3059
12.9948
12.4925
11.7509
10.6944
9.20387
7.08517
4.02713
0.366236
)
;
    }
}


// ************************************************************************* //
