/*--------------------------------*- C++ -*----------------------------------*\
| =========                 |                                                 |
| \\      /  F ield         | OpenFOAM: The Open Source CFD Toolbox           |
|  \\    /   O peration     | Version:  2506                                  |
|   \\  /    A nd           | Website:  www.openfoam.com                      |
|    \\/     M anipulation  |                                                 |
\*---------------------------------------------------------------------------*/
FoamFile
{
    version     2.0;
    format      ascii;
    arch        "LSB;label=32;scalar=64";
    class       surfaceScalarField;
    location    "0.989945";
    object      phi;
}
// * * * * * * * * * * * * * * * * * * * * * * * * * * * * * * * * * * * * * //

dimensions      [1 0 -1 0 0 0 0];

oriented        oriented;

internalField   nonuniform List<scalar> 
370
(
3.20597e-06
-2.104e-06
2.99228e-06
-1.85616e-06
2.77254e-06
-1.64372e-06
2.5526e-06
-1.46317e-06
2.33572e-06
-1.3135e-06
2.1229e-06
-1.19494e-06
1.91783e-06
-1.10837e-06
1.7761e-06
-1.09628e-06
1.91526e-06
-1.39191e-06
-1.84024e-06
2.9359e-06
-1.81048e-06
2.82757e-06
-1.5841e-06
2.69277e-06
-1.39381e-06
2.54471e-06
-1.23548e-06
2.39368e-06
-1.10828e-06
2.2493e-06
-1.01437e-06
2.12903e-06
-9.64512e-07
2.05507e-06
-1.00749e-06
1.90622e-06
-1.23444e-06
-1.35142e-06
2.59929e-06
-1.55883e-06
2.57199e-06
-1.35124e-06
2.50589e-06
-1.1804e-06
2.41614e-06
-1.04187e-06
2.31451e-06
-9.3458e-07
2.21033e-06
-8.61013e-07
2.10987e-06
-8.31115e-07
1.99655e-06
-8.72696e-07
1.78638e-06
-1.01105e-06
-1.07578e-06
2.34092e-06
-1.33098e-06
2.37358e-06
-1.14342e-06
2.35977e-06
-9.91718e-07
2.31454e-06
-8.71572e-07
2.24962e-06
-7.81576e-07
2.17301e-06
-7.23308e-07
2.08669e-06
-7.031e-07
1.97702e-06
-7.35168e-07
1.8119e-06
-8.28197e-07
-8.79115e-07
2.14393e-06
-1.11402e-06
2.22062e-06
-9.49628e-07
2.24617e-06
-8.183e-07
2.23475e-06
-7.16217e-07
2.19746e-06
-6.41748e-07
2.14161e-06
-5.9545e-07
2.06906e-06
-5.80712e-07
1.97247e-06
-6.04729e-07
1.83707e-06
-6.708e-07
-7.11732e-07
1.99743e-06
-8.99217e-07
2.10539e-06
-7.61773e-07
2.15951e-06
-6.52854e-07
2.17284e-06
-5.69306e-07
2.15577e-06
-5.09491e-07
2.11521e-06
-4.73243e-07
2.05362e-06
-4.6205e-07
1.96753e-06
-4.79415e-07
1.84919e-06
-5.26628e-07
-5.60247e-07
1.89364e-06
-6.8139e-07
2.0228e-06
-5.74578e-07
2.09668e-06
-4.90336e-07
2.12734e-06
-4.2627e-07
2.12449e-06
-3.80952e-07
2.09482e-06
-3.53872e-07
2.04142e-06
-3.45476e-07
1.96315e-06
-3.57403e-07
1.85598e-06
-3.90375e-07
-4.17054e-07
1.82483e-06
-4.58422e-07
1.96752e-06
-3.8535e-07
2.05429e-06
-3.27864e-07
2.09639e-06
-2.84368e-07
2.10304e-06
-2.53815e-07
2.0808e-06
-2.35681e-07
2.0332e-06
-2.29972e-07
1.9605e-06
-2.37427e-07
1.86028e-06
-2.58555e-07
-2.77288e-07
1.7837e-06
-2.30628e-07
1.93425e-06
-1.93516e-07
2.02865e-06
-1.64354e-07
2.07761e-06
-1.42347e-07
2.09002e-06
-1.26943e-07
2.07237e-06
-1.17825e-07
2.02845e-06
-1.14919e-07
1.95921e-06
-1.18506e-07
1.86286e-06
-1.2887e-07
-1.38556e-07
1.76466e-06
3.20635e-12
1.91878e-06
2.91157e-12
2.01669e-06
2.5329e-12
2.06884e-06
2.1745e-12
2.08396e-06
1.86951e-12
2.06849e-06
1.61898e-12
2.02634e-06
1.40964e-12
1.95874e-06
1.24206e-12
1.86407e-06
1.09867e-12
9.15264e-13
1.76466e-06
2.30634e-07
1.91878e-06
1.93522e-07
2.01669e-06
1.64359e-07
2.06884e-06
1.42352e-07
2.08396e-06
1.26947e-07
2.06849e-06
1.17828e-07
2.02634e-06
1.14922e-07
1.95874e-06
1.18509e-07
1.86407e-06
1.28873e-07
1.38558e-07
1.7837e-06
4.58428e-07
1.93426e-06
3.85355e-07
2.02865e-06
3.27869e-07
2.07761e-06
2.84372e-07
2.09002e-06
2.53819e-07
2.07237e-06
2.35684e-07
2.02845e-06
2.29975e-07
1.95921e-06
2.37429e-07
1.86286e-06
2.58557e-07
2.77289e-07
1.82483e-06
6.81395e-07
1.96752e-06
5.74583e-07
2.05429e-06
4.9034e-07
2.09639e-06
4.26274e-07
2.10304e-06
3.80956e-07
2.0808e-06
3.53874e-07
2.0332e-06
3.45478e-07
1.9605e-06
3.57405e-07
1.86028e-06
3.90377e-07
4.17056e-07
1.89364e-06
8.99222e-07
2.0228e-06
7.61777e-07
2.09668e-06
6.52857e-07
2.12734e-06
5.69309e-07
2.12449e-06
5.09494e-07
2.09482e-06
4.73245e-07
2.04142e-06
4.62052e-07
1.96315e-06
4.79417e-07
1.85598e-06
5.2663e-07
5.60248e-07
1.99743e-06
1.11402e-06
2.10539e-06
9.49631e-07
2.15951e-06
8.18304e-07
2.17284e-06
7.1622e-07
2.15577e-06
6.4175e-07
2.11521e-06
5.95452e-07
2.05362e-06
5.80714e-07
1.96753e-06
6.0473e-07
1.84919e-06
6.70801e-07
7.11733e-07
2.14394e-06
1.33099e-06
2.22062e-06
1.14343e-06
2.24617e-06
9.91721e-07
2.23475e-06
8.71574e-07
2.19746e-06
7.81578e-07
2.14161e-06
7.2331e-07
2.06906e-06
7.03102e-07
1.97247e-06
7.35169e-07
1.83707e-06
8.28198e-07
8.79116e-07
2.34093e-06
1.55883e-06
2.37358e-06
1.35124e-06
2.35977e-06
1.1804e-06
2.31455e-06
1.04187e-06
2.24962e-06
9.34582e-07
2.17301e-06
8.61014e-07
2.08669e-06
8.31116e-07
1.97702e-06
8.72696e-07
1.8119e-06
1.01105e-06
1.07578e-06
2.59929e-06
1.81048e-06
2.57199e-06
1.5841e-06
2.50589e-06
1.39381e-06
2.41614e-06
1.23548e-06
2.31451e-06
1.10828e-06
2.21033e-06
1.01437e-06
2.10987e-06
9.64512e-07
1.99655e-06
1.00749e-06
1.78638e-06
1.23444e-06
1.35142e-06
2.9359e-06
2.104e-06
2.82757e-06
1.85616e-06
2.69277e-06
1.64372e-06
2.54471e-06
1.46317e-06
2.39368e-06
1.3135e-06
2.2493e-06
1.19494e-06
2.12903e-06
1.10837e-06
2.05507e-06
1.09628e-06
1.90622e-06
1.39191e-06
1.84023e-06
3.20597e-06
2.99228e-06
2.77254e-06
2.5526e-06
2.33572e-06
2.1229e-06
1.91783e-06
1.7761e-06
1.91526e-06
)
;

boundaryField
{
    leftWall
    {
        type            calculated;
        value           nonuniform List<scalar> 0();
    }
    rightWall
    {
        type            calculated;
        value           nonuniform List<scalar> 
20
(
1.87801e-06
1.42074e-06
1.51684e-06
1.62401e-06
1.681e-06
1.71129e-06
1.7283e-06
1.73753e-06
1.74216e-06
1.74406e-06
1.74406e-06
1.74216e-06
1.73753e-06
1.7283e-06
1.71129e-06
1.681e-06
1.62401e-06
1.51684e-06
1.42074e-06
1.87801e-06
)
;
    }
    topWall
    {
        type            calculated;
        value           nonuniform List<scalar> 10(2.45072e-06 2.17274e-06 1.93338e-06 1.72987e-06 1.56107e-06 1.42744e-06 1.32561e-06 1.24506e-06 1.25616e-06 1.87801e-06);
    }
    bottomWall
    {
        type            calculated;
        value           nonuniform List<scalar> 10(2.45072e-06 2.17274e-06 1.93338e-06 1.72987e-06 1.56107e-06 1.42744e-06 1.32561e-06 1.24506e-06 1.25616e-06 1.87801e-06);
    }
    frontAndBackPlanes
    {
        type            empty;
    }
    procBoundary0to1
    {
        type            processor;
        value           nonuniform List<scalar> 
20
(
-3.4035e-06
-3.00032e-06
-2.56903e-06
-2.24397e-06
-1.99989e-06
-1.82106e-06
-1.69605e-06
-1.61409e-06
-1.56554e-06
-1.5432e-06
-1.5432e-06
-1.56554e-06
-1.61409e-06
-1.69605e-06
-1.82107e-06
-1.9999e-06
-2.24397e-06
-2.56904e-06
-3.00033e-06
-3.40351e-06
)
;
    }
}


// ************************************************************************* //
