/*--------------------------------*- C++ -*----------------------------------*\
| =========                 |                                                 |
| \\      /  F ield         | OpenFOAM: The Open Source CFD Toolbox           |
|  \\    /   O peration     | Version:  2506                                  |
|   \\  /    A nd           | Website:  www.openfoam.com                      |
|    \\/     M anipulation  |                                                 |
\*---------------------------------------------------------------------------*/
FoamFile
{
    version     2.0;
    format      ascii;
    arch        "LSB;label=32;scalar=64";
    class       volScalarField;
    location    "0.989945";
    object      T;
}
// * * * * * * * * * * * * * * * * * * * * * * * * * * * * * * * * * * * * * //

dimensions      [0 0 0 1 0 0 0];

internalField   nonuniform List<scalar> 
200
(
273.078
273.051
273.033
273.021
273.013
273.008
273.005
273.003
273.001
273
273.131
273.087
273.058
273.038
273.025
273.016
273.01
273.006
273.003
273.001
273.168
273.114
273.076
273.051
273.034
273.022
273.014
273.009
273.005
273.002
273.199
273.137
273.093
273.063
273.042
273.028
273.018
273.012
273.007
273.003
273.226
273.156
273.107
273.073
273.049
273.033
273.022
273.014
273.009
273.004
273.248
273.173
273.119
273.082
273.056
273.038
273.025
273.017
273.011
273.005
273.265
273.186
273.129
273.089
273.061
273.042
273.028
273.019
273.012
273.006
273.277
273.195
273.137
273.095
273.065
273.044
273.03
273.02
273.013
273.007
273.285
273.202
273.142
273.098
273.068
273.046
273.032
273.021
273.014
273.007
273.289
273.205
273.144
273.1
273.069
273.047
273.032
273.022
273.014
273.007
273.289
273.205
273.144
273.1
273.069
273.047
273.032
273.022
273.014
273.007
273.285
273.202
273.142
273.098
273.068
273.046
273.032
273.021
273.014
273.007
273.277
273.195
273.137
273.095
273.065
273.044
273.03
273.02
273.013
273.007
273.265
273.186
273.129
273.089
273.061
273.042
273.028
273.019
273.012
273.006
273.248
273.173
273.119
273.082
273.056
273.038
273.025
273.017
273.011
273.005
273.226
273.156
273.107
273.073
273.049
273.033
273.022
273.014
273.009
273.004
273.199
273.137
273.093
273.063
273.042
273.028
273.018
273.012
273.007
273.003
273.168
273.114
273.076
273.051
273.034
273.022
273.014
273.009
273.005
273.002
273.131
273.087
273.058
273.038
273.025
273.016
273.01
273.006
273.003
273.001
273.078
273.051
273.033
273.021
273.013
273.008
273.005
273.003
273.001
273
)
;

boundaryField
{
    leftWall
    {
        type            fixedValue;
        value           nonuniform List<scalar> 0();
    }
    rightWall
    {
        type            fixedValue;
        value           uniform 273;
    }
    topWall
    {
        type            fixedValue;
        value           uniform 273;
    }
    bottomWall
    {
        type            fixedValue;
        value           uniform 273;
    }
    frontAndBackPlanes
    {
        type            empty;
    }
    procBoundary0to1
    {
        type            processor;
        value           nonuniform List<scalar> 
20
(
273.119
273.195
273.247
273.289
273.324
273.352
273.374
273.389
273.4
273.405
273.405
273.4
273.389
273.374
273.352
273.324
273.289
273.247
273.195
273.119
)
;
    }
}


// ************************************************************************* //
