/*--------------------------------*- C++ -*----------------------------------*\
| =========                 |                                                 |
| \\      /  F ield         | OpenFOAM: The Open Source CFD Toolbox           |
|  \\    /   O peration     | Version:  2506                                  |
|   \\  /    A nd           | Website:  www.openfoam.com                      |
|    \\/     M anipulation  |                                                 |
\*---------------------------------------------------------------------------*/
FoamFile
{
    version     2.0;
    format      ascii;
    arch        "LSB;label=32;scalar=64";
    class       volVectorField;
    location    "0.989945";
    object      U;
}
// * * * * * * * * * * * * * * * * * * * * * * * * * * * * * * * * * * * * * //

dimensions      [0 1 -1 0 0 0 0];

internalField   nonuniform List<vector> 
200
(
(2.64544e-05 -3.35257e-05 0)
(2.47854e-05 -2.96236e-05 0)
(2.30372e-05 -2.62603e-05 0)
(2.12699e-05 -2.33894e-05 0)
(1.95207e-05 -2.09987e-05 0)
(1.78235e-05 -1.90939e-05 0)
(1.61617e-05 -1.76773e-05 0)
(1.44019e-05 -1.72309e-05 0)
(1.34849e-05 -2.08109e-05 0)
(2.9873e-05 -2.98337e-05 0)
(2.38182e-05 -1.56798e-05 0)
(2.30899e-05 -1.37691e-05 0)
(2.20897e-05 -1.21497e-05 0)
(2.09372e-05 -1.07891e-05 0)
(1.97272e-05 -9.67936e-06 0)
(1.85459e-05 -8.83586e-06 0)
(1.74316e-05 -8.34207e-06 0)
(1.63135e-05 -8.60271e-06 0)
(1.59252e-05 -1.04928e-05 0)
(2.51837e-05 -1.15858e-05 0)
(2.07787e-05 -1.31512e-05 0)
(2.07506e-05 -1.14463e-05 0)
(2.03443e-05 -1.00311e-05 0)
(1.96955e-05 -8.87087e-06 0)
(1.89151e-05 -7.95847e-06 0)
(1.80884e-05 -7.31527e-06 0)
(1.72125e-05 -7.02725e-06 0)
(1.61747e-05 -7.36497e-06 0)
(1.55934e-05 -8.66103e-06 0)
(2.35063e-05 -9.32915e-06 0)
(1.8461e-05 -1.14725e-05 0)
(1.89413e-05 -9.89554e-06 0)
(1.89836e-05 -8.6111e-06 0)
(1.87211e-05 -7.58377e-06 0)
(1.82657e-05 -6.80363e-06 0)
(1.76954e-05 -6.28732e-06 0)
(1.69863e-05 -6.09817e-06 0)
(1.60452e-05 -6.3922e-06 0)
(1.56003e-05 -7.29574e-06 0)
(2.40313e-05 -7.79859e-06 0)
(1.67038e-05 -9.7756e-06 0)
(1.7552e-05 -8.36093e-06 0)
(1.79293e-05 -7.22532e-06 0)
(1.79602e-05 -6.33586e-06 0)
(1.7751e-05 -5.68003e-06 0)
(1.73734e-05 -5.26577e-06 0)
(1.67991e-05 -5.12973e-06 0)
(1.59621e-05 -5.35107e-06 0)
(1.56752e-05 -5.97353e-06 0)
(2.45263e-05 -6.3549e-06 0)
(1.54049e-05 -8.05155e-06 0)
(1.65109e-05 -6.83774e-06 0)
(1.71297e-05 -5.87311e-06 0)
(1.73752e-05 -5.12949e-06 0)
(1.73464e-05 -4.59335e-06 0)
(1.711e-05 -4.26541e-06 0)
(1.66374e-05 -4.16315e-06 0)
(1.5883e-05 -4.32525e-06 0)
(1.57099e-05 -4.76782e-06 0)
(2.4821e-05 -5.07425e-06 0)
(1.44896e-05 -6.32371e-06 0)
(1.57682e-05 -5.3413e-06 0)
(1.6553e-05 -4.56533e-06 0)
(1.69481e-05 -3.97352e-06 0)
(1.70461e-05 -3.55322e-06 0)
(1.69095e-05 -3.30095e-06 0)
(1.65107e-05 -3.22305e-06 0)
(1.58181e-05 -3.33795e-06 0)
(1.57247e-05 -3.6538e-06 0)
(2.50174e-05 -3.90248e-06 0)
(1.38856e-05 -4.56405e-06 0)
(1.5273e-05 -3.84024e-06 0)
(1.61651e-05 -3.27046e-06 0)
(1.66587e-05 -2.83872e-06 0)
(1.68409e-05 -2.53486e-06 0)
(1.67716e-05 -2.3542e-06 0)
(1.6424e-05 -2.2977e-06 0)
(1.57753e-05 -2.3739e-06 0)
(1.57353e-05 -2.58832e-06 0)
(2.51533e-05 -2.77555e-06 0)
(1.3526e-05 -2.76086e-06 0)
(1.49758e-05 -2.31739e-06 0)
(1.59309e-05 -1.96885e-06 0)
(1.64832e-05 -1.70571e-06 0)
(1.67162e-05 -1.52141e-06 0)
(1.66881e-05 -1.41228e-06 0)
(1.63725e-05 -1.37761e-06 0)
(1.57515e-05 -1.42106e-06 0)
(1.57436e-05 -1.54627e-06 0)
(2.52394e-05 -1.66327e-06 0)
(1.33598e-05 -9.24341e-07 0)
(1.48378e-05 -7.74953e-07 0)
(1.58218e-05 -6.57624e-07 0)
(1.64012e-05 -5.6918e-07 0)
(1.66581e-05 -5.07364e-07 0)
(1.66494e-05 -4.70815e-07 0)
(1.6349e-05 -4.59095e-07 0)
(1.57414e-05 -4.73219e-07 0)
(1.57483e-05 -5.14482e-07 0)
(2.52813e-05 -5.54331e-07 0)
(1.33598e-05 9.24392e-07 0)
(1.48378e-05 7.75e-07 0)
(1.58218e-05 6.57664e-07 0)
(1.64012e-05 5.69215e-07 0)
(1.66581e-05 5.07394e-07 0)
(1.66494e-05 4.7084e-07 0)
(1.6349e-05 4.59117e-07 0)
(1.57414e-05 4.73239e-07 0)
(1.57483e-05 5.145e-07 0)
(2.52813e-05 5.54345e-07 0)
(1.3526e-05 2.76091e-06 0)
(1.49758e-05 2.31743e-06 0)
(1.59309e-05 1.96889e-06 0)
(1.64832e-05 1.70574e-06 0)
(1.67162e-05 1.52143e-06 0)
(1.66881e-05 1.4123e-06 0)
(1.63725e-05 1.37763e-06 0)
(1.57515e-05 1.42108e-06 0)
(1.57436e-05 1.54629e-06 0)
(2.52394e-05 1.66329e-06 0)
(1.38856e-05 4.56409e-06 0)
(1.5273e-05 3.84028e-06 0)
(1.61651e-05 3.27049e-06 0)
(1.66587e-05 2.83875e-06 0)
(1.68409e-05 2.53489e-06 0)
(1.67716e-05 2.35422e-06 0)
(1.6424e-05 2.29772e-06 0)
(1.57753e-05 2.37392e-06 0)
(1.57353e-05 2.58834e-06 0)
(2.51533e-05 2.77556e-06 0)
(1.44897e-05 6.32375e-06 0)
(1.57682e-05 5.34133e-06 0)
(1.6553e-05 4.56536e-06 0)
(1.69481e-05 3.97355e-06 0)
(1.70461e-05 3.55324e-06 0)
(1.69095e-05 3.30097e-06 0)
(1.65107e-05 3.22306e-06 0)
(1.58181e-05 3.33797e-06 0)
(1.57247e-05 3.65382e-06 0)
(2.50174e-05 3.90249e-06 0)
(1.54049e-05 8.05159e-06 0)
(1.65109e-05 6.83778e-06 0)
(1.71297e-05 5.87314e-06 0)
(1.73752e-05 5.12951e-06 0)
(1.73464e-05 4.59338e-06 0)
(1.711e-05 4.26543e-06 0)
(1.66374e-05 4.16317e-06 0)
(1.5883e-05 4.32526e-06 0)
(1.57099e-05 4.76783e-06 0)
(2.4821e-05 5.07426e-06 0)
(1.67039e-05 9.77563e-06 0)
(1.7552e-05 8.36095e-06 0)
(1.79294e-05 7.22534e-06 0)
(1.79602e-05 6.33588e-06 0)
(1.7751e-05 5.68004e-06 0)
(1.73734e-05 5.26578e-06 0)
(1.67991e-05 5.12975e-06 0)
(1.59621e-05 5.35108e-06 0)
(1.56752e-05 5.97354e-06 0)
(2.45263e-05 6.35491e-06 0)
(1.8461e-05 1.14725e-05 0)
(1.89413e-05 9.89556e-06 0)
(1.89836e-05 8.61112e-06 0)
(1.87211e-05 7.58378e-06 0)
(1.82657e-05 6.80365e-06 0)
(1.76954e-05 6.28733e-06 0)
(1.69863e-05 6.09818e-06 0)
(1.60452e-05 6.39221e-06 0)
(1.56003e-05 7.29575e-06 0)
(2.40313e-05 7.7986e-06 0)
(2.07787e-05 1.31512e-05 0)
(2.07506e-05 1.14463e-05 0)
(2.03443e-05 1.00311e-05 0)
(1.96955e-05 8.87088e-06 0)
(1.89151e-05 7.95848e-06 0)
(1.80884e-05 7.31528e-06 0)
(1.72125e-05 7.02726e-06 0)
(1.61747e-05 7.36497e-06 0)
(1.55934e-05 8.66104e-06 0)
(2.35063e-05 9.32915e-06 0)
(2.38182e-05 1.56798e-05 0)
(2.30899e-05 1.37691e-05 0)
(2.20897e-05 1.21497e-05 0)
(2.09371e-05 1.07891e-05 0)
(1.97272e-05 9.67937e-06 0)
(1.85459e-05 8.83586e-06 0)
(1.74316e-05 8.34207e-06 0)
(1.63135e-05 8.60271e-06 0)
(1.59252e-05 1.04928e-05 0)
(2.51837e-05 1.15858e-05 0)
(2.64544e-05 3.35257e-05 0)
(2.47854e-05 2.96236e-05 0)
(2.30372e-05 2.62603e-05 0)
(2.12699e-05 2.33894e-05 0)
(1.95207e-05 2.09987e-05 0)
(1.78235e-05 1.90939e-05 0)
(1.61617e-05 1.76772e-05 0)
(1.44019e-05 1.72309e-05 0)
(1.34849e-05 2.08109e-05 0)
(2.9873e-05 2.98337e-05 0)
)
;

boundaryField
{
    leftWall
    {
        type            noSlip;
    }
    rightWall
    {
        type            noSlip;
    }
    topWall
    {
        type            noSlip;
    }
    bottomWall
    {
        type            noSlip;
    }
    frontAndBackPlanes
    {
        type            empty;
    }
    procBoundary0to1
    {
        type            processor;
        value           nonuniform List<vector> 
20
(
(2.79413e-05 -3.80455e-05 0)
(2.41155e-05 -1.79404e-05 0)
(2.02648e-05 -1.52087e-05 0)
(1.73909e-05 -1.34026e-05 0)
(1.525e-05 -1.15216e-05 0)
(1.36925e-05 -9.55573e-06 0)
(1.26108e-05 -7.54277e-06 0)
(1.19056e-05 -5.46215e-06 0)
(1.14899e-05 -3.31085e-06 0)
(1.12991e-05 -1.10954e-06 0)
(1.12991e-05 1.10959e-06 0)
(1.14899e-05 3.3109e-06 0)
(1.19057e-05 5.4622e-06 0)
(1.26109e-05 7.54281e-06 0)
(1.36926e-05 9.55577e-06 0)
(1.525e-05 1.15216e-05 0)
(1.7391e-05 1.34026e-05 0)
(2.02648e-05 1.52087e-05 0)
(2.41155e-05 1.79405e-05 0)
(2.79413e-05 3.80454e-05 0)
)
;
    }
}


// ************************************************************************* //
