/*--------------------------------*- C++ -*----------------------------------*\
| =========                 |                                                 |
| \\      /  F ield         | OpenFOAM: The Open Source CFD Toolbox           |
|  \\    /   O peration     | Version:  2506                                  |
|   \\  /    A nd           | Website:  www.openfoam.com                      |
|    \\/     M anipulation  |                                                 |
\*---------------------------------------------------------------------------*/
FoamFile
{
    version     2.0;
    format      ascii;
    arch        "LSB;label=32;scalar=64";
    class       volScalarField;
    location    "0.132";
    object      k;
}
// * * * * * * * * * * * * * * * * * * * * * * * * * * * * * * * * * * * * * //

dimensions      [0 2 -2 0 0 0 0];

internalField   nonuniform List<scalar> 
200
(
0.179362
0.179361
0.179359
0.179356
0.179345
0.179299
0.179099
0.178201
0.173582
0.146469
0.445006
0.445005
0.445
0.444978
0.444886
0.444484
0.442728
0.435073
0.402016
0.173582
0.48748
0.487479
0.487472
0.487442
0.487316
0.486774
0.484473
0.474805
0.435073
0.178201
0.498178
0.498177
0.498168
0.498134
0.49799
0.497385
0.49486
0.484473
0.442728
0.179099
0.500817
0.500815
0.500807
0.500771
0.500619
0.499989
0.497385
0.486774
0.444484
0.179299
0.50146
0.501458
0.501449
0.501412
0.501258
0.500619
0.49799
0.487316
0.444886
0.179344
0.501616
0.501613
0.501605
0.501567
0.501412
0.500771
0.498134
0.487442
0.444978
0.179355
0.501653
0.501651
0.501642
0.501605
0.501449
0.500807
0.498168
0.487472
0.444999
0.179358
0.501662
0.50166
0.501651
0.501613
0.501458
0.500815
0.498176
0.487478
0.445004
0.179358
0.501664
0.501662
0.501653
0.501615
0.50146
0.500817
0.498178
0.48748
0.445005
0.179358
0.501664
0.501662
0.501653
0.501615
0.50146
0.500817
0.498178
0.48748
0.445005
0.179358
0.501662
0.50166
0.501651
0.501613
0.501458
0.500815
0.498176
0.487478
0.445004
0.179358
0.501653
0.501651
0.501642
0.501605
0.501449
0.500807
0.498168
0.487472
0.444999
0.179358
0.501616
0.501613
0.501605
0.501567
0.501412
0.500771
0.498134
0.487442
0.444978
0.179355
0.50146
0.501458
0.501449
0.501412
0.501258
0.500619
0.49799
0.487316
0.444886
0.179344
0.500817
0.500815
0.500807
0.500771
0.500619
0.499989
0.497385
0.486774
0.444484
0.179299
0.498178
0.498176
0.498168
0.498134
0.49799
0.497385
0.49486
0.484473
0.442728
0.179099
0.48748
0.487479
0.487472
0.487442
0.487316
0.486774
0.484473
0.474805
0.435073
0.178201
0.445006
0.445005
0.445
0.444978
0.444886
0.444484
0.442728
0.435073
0.402016
0.173582
0.179362
0.179361
0.179359
0.179356
0.179345
0.179299
0.179099
0.178201
0.173582
0.146469
)
;

boundaryField
{
    leftWall
    {
        type            kqRWallFunction;
        value           nonuniform List<scalar> 0();
    }
    rightWall
    {
        type            kqRWallFunction;
        value           nonuniform List<scalar> 
20
(
0.146469
0.173582
0.178201
0.179099
0.179299
0.179344
0.179355
0.179358
0.179358
0.179358
0.179358
0.179358
0.179358
0.179355
0.179344
0.179299
0.179099
0.178201
0.173582
0.146469
)
;
    }
    topWall
    {
        type            kqRWallFunction;
        value           nonuniform List<scalar> 10(0.179362 0.179361 0.179359 0.179356 0.179345 0.179299 0.179099 0.178201 0.173582 0.146469);
    }
    bottomWall
    {
        type            kqRWallFunction;
        value           nonuniform List<scalar> 10(0.179362 0.179361 0.179359 0.179356 0.179345 0.179299 0.179099 0.178201 0.173582 0.146469);
    }
    frontAndBackPlanes
    {
        type            empty;
    }
    procBoundary0to1
    {
        type            processor;
        value           nonuniform List<scalar> 
20
(
0.179363
0.445006
0.48748
0.498178
0.500817
0.50146
0.501616
0.501653
0.501662
0.501664
0.501664
0.501662
0.501653
0.501616
0.50146
0.500817
0.498178
0.48748
0.445007
0.179363
)
;
    }
}


// ************************************************************************* //
