/*--------------------------------*- C++ -*----------------------------------*\
| =========                 |                                                 |
| \\      /  F ield         | OpenFOAM: The Open Source CFD Toolbox           |
|  \\    /   O peration     | Version:  2506                                  |
|   \\  /    A nd           | Website:  www.openfoam.com                      |
|    \\/     M anipulation  |                                                 |
\*---------------------------------------------------------------------------*/
FoamFile
{
    version     2.0;
    format      ascii;
    arch        "LSB;label=32;scalar=64";
    class       surfaceScalarField;
    location    "0.132";
    object      phi;
}
// * * * * * * * * * * * * * * * * * * * * * * * * * * * * * * * * * * * * * //

dimensions      [1 0 -1 0 0 0 0];

oriented        oriented;

internalField   nonuniform List<scalar> 
370
(
5.46888e-07
-2.20299e-06
4.6791e-07
-1.85201e-06
4.051e-07
-1.54832e-06
3.54921e-07
-1.28319e-06
3.14716e-07
-1.04949e-06
2.82222e-07
-8.414e-07
2.54999e-07
-6.54398e-07
2.32252e-07
-4.89216e-07
2.20739e-07
-3.5794e-07
-2.11993e-07
8.99497e-07
-2.03964e-06
7.7034e-07
-1.72283e-06
6.67436e-07
-1.44541e-06
5.85163e-07
-1.20091e-06
5.1939e-07
-9.83718e-07
4.67047e-07
-7.89058e-07
4.26257e-07
-6.13608e-07
3.95976e-07
-4.58934e-07
3.76671e-07
-3.38636e-07
-1.99545e-07
1.12645e-06
-1.84475e-06
9.70181e-07
-1.56653e-06
8.44338e-07
-1.31955e-06
7.43023e-07
-1.0996e-06
6.61906e-07
-9.026e-07
5.97842e-07
-7.24993e-07
5.48782e-07
-5.64548e-07
5.13511e-07
-4.23663e-07
4.90547e-07
-3.15672e-07
-1.89126e-07
1.37463e-06
-1.62047e-06
1.19173e-06
-1.38359e-06
1.04251e-06
-1.17032e-06
9.21245e-07
-9.78328e-07
8.23626e-07
-8.04981e-07
7.46456e-07
-6.47823e-07
6.87405e-07
-5.05498e-07
6.44516e-07
-3.80775e-07
6.14516e-07
-2.85671e-07
-1.73222e-07
1.60298e-06
-1.37334e-06
1.39816e-06
-1.17874e-06
1.22894e-06
-1.00109e-06
1.0901e-06
-8.39484e-07
9.77551e-07
-6.92429e-07
8.88115e-07
-5.58386e-07
8.19262e-07
-4.36645e-07
7.68481e-07
-3.29993e-07
7.31638e-07
-2.48828e-07
-1.5152e-07
1.79481e-06
-1.11066e-06
1.57389e-06
-9.57788e-07
1.38926e-06
-8.16447e-07
1.2364e-06
-6.8662e-07
1.11161e-06
-5.67638e-07
1.01185e-06
-4.58634e-07
9.34541e-07
-3.59331e-07
8.76798e-07
-2.72251e-07
8.33934e-07
-2.05964e-07
-1.25616e-07
1.94639e-06
-8.3845e-07
1.71455e-06
-7.25907e-07
1.51882e-06
-6.20707e-07
1.35548e-06
-5.23281e-07
1.22129e-06
-4.33447e-07
1.11345e-06
-3.50787e-07
1.02938e-06
-2.75267e-07
9.66073e-07
-2.08942e-07
9.18503e-07
-1.58394e-07
-9.66698e-08
2.05808e-06
-5.60997e-07
1.81935e-06
-4.87138e-07
1.61617e-06
-4.17517e-07
1.44553e-06
-3.52636e-07
1.30462e-06
-2.9253e-07
1.19087e-06
-2.37037e-07
1.10182e-06
-1.86221e-07
1.03441e-06
-1.41527e-07
9.83435e-07
-1.07423e-07
-6.55845e-08
2.13135e-06
-2.80992e-07
1.8887e-06
-2.44446e-07
1.68101e-06
-2.09815e-07
1.50579e-06
-1.77414e-07
1.36057e-06
-1.47311e-07
1.24299e-06
-1.19458e-07
1.15069e-06
-9.39143e-08
1.08059e-06
-7.14263e-08
1.02742e-06
-5.42517e-08
-3.31277e-08
2.16759e-06
-4.96516e-13
1.92318e-06
-4.57157e-13
1.71338e-06
-3.82278e-13
1.53597e-06
-3.02127e-13
1.38866e-06
-2.26337e-13
1.2692e-06
-1.64613e-13
1.17529e-06
-1.03313e-13
1.10386e-06
-4.90709e-14
1.04961e-06
-2.78553e-15
1.19262e-14
2.16759e-06
2.80991e-07
1.92318e-06
2.44445e-07
1.71338e-06
2.09814e-07
1.53597e-06
1.77414e-07
1.38866e-06
1.47311e-07
1.2692e-06
1.19458e-07
1.17529e-06
9.39141e-08
1.10386e-06
7.14263e-08
1.04961e-06
5.42517e-08
3.31278e-08
2.13135e-06
5.60996e-07
1.8887e-06
4.87137e-07
1.68101e-06
4.17516e-07
1.50579e-06
3.52635e-07
1.36057e-06
2.9253e-07
1.24299e-06
2.37037e-07
1.15069e-06
1.8622e-07
1.08059e-06
1.41527e-07
1.02742e-06
1.07423e-07
6.55845e-08
2.05808e-06
8.38449e-07
1.81935e-06
7.25907e-07
1.61618e-06
6.20707e-07
1.44553e-06
5.23281e-07
1.30462e-06
4.33447e-07
1.19087e-06
3.50787e-07
1.10182e-06
2.75267e-07
1.03441e-06
2.08942e-07
9.83435e-07
1.58394e-07
9.66698e-08
1.94639e-06
1.11066e-06
1.71455e-06
9.57787e-07
1.51882e-06
8.16446e-07
1.35548e-06
6.86619e-07
1.22129e-06
5.67638e-07
1.11345e-06
4.58634e-07
1.02938e-06
3.59331e-07
9.66073e-07
2.72251e-07
9.18503e-07
2.05964e-07
1.25616e-07
1.79481e-06
1.37334e-06
1.5739e-06
1.17874e-06
1.38926e-06
1.00109e-06
1.2364e-06
8.39484e-07
1.11161e-06
6.92429e-07
1.01185e-06
5.58386e-07
9.34541e-07
4.36645e-07
8.76799e-07
3.29993e-07
8.33934e-07
2.48829e-07
1.5152e-07
1.60298e-06
1.62047e-06
1.39816e-06
1.38359e-06
1.22894e-06
1.17032e-06
1.0901e-06
9.78328e-07
9.77552e-07
8.04981e-07
8.88116e-07
6.47823e-07
8.19263e-07
5.05498e-07
7.68481e-07
3.80775e-07
7.31639e-07
2.85671e-07
1.73222e-07
1.37463e-06
1.84475e-06
1.19173e-06
1.56653e-06
1.04251e-06
1.31956e-06
9.21245e-07
1.0996e-06
8.23626e-07
9.02601e-07
7.46456e-07
7.24994e-07
6.87405e-07
5.64548e-07
6.44517e-07
4.23663e-07
6.14516e-07
3.15672e-07
1.89126e-07
1.12645e-06
2.03964e-06
9.70182e-07
1.72283e-06
8.44338e-07
1.44541e-06
7.43024e-07
1.20091e-06
6.61906e-07
9.83719e-07
5.97842e-07
7.89058e-07
5.48782e-07
6.13608e-07
5.13511e-07
4.58935e-07
4.90547e-07
3.38636e-07
1.99545e-07
8.99497e-07
2.20299e-06
7.7034e-07
1.85201e-06
6.67436e-07
1.54832e-06
5.85164e-07
1.28319e-06
5.1939e-07
1.04949e-06
4.67048e-07
8.41401e-07
4.26257e-07
6.54399e-07
3.95976e-07
4.89216e-07
3.76671e-07
3.5794e-07
2.11993e-07
5.46888e-07
4.6791e-07
4.051e-07
3.54921e-07
3.14716e-07
2.82222e-07
2.54999e-07
2.32252e-07
2.20739e-07
)
;

boundaryField
{
    leftWall
    {
        type            calculated;
        value           nonuniform List<scalar> 0();
    }
    rightWall
    {
        type            calculated;
        value           nonuniform List<scalar> 
20
(
2.16366e-07
3.64223e-07
4.80128e-07
5.98613e-07
7.09936e-07
8.08029e-07
8.89557e-07
9.5235e-07
9.94959e-07
1.01648e-06
1.01648e-06
9.94959e-07
9.5235e-07
8.89557e-07
8.0803e-07
7.09936e-07
5.98613e-07
4.80128e-07
3.64223e-07
2.16366e-07
)
;
    }
    topWall
    {
        type            calculated;
        value           nonuniform List<scalar> 10(2.30313e-06 1.931e-06 1.61113e-06 1.33337e-06 1.0897e-06 8.73894e-07 6.81622e-07 5.11962e-07 3.69454e-07 2.16366e-07);
    }
    bottomWall
    {
        type            calculated;
        value           nonuniform List<scalar> 10(2.30314e-06 1.931e-06 1.61113e-06 1.33337e-06 1.0897e-06 8.73895e-07 6.81622e-07 5.11962e-07 3.69454e-07 2.16366e-07);
    }
    frontAndBackPlanes
    {
        type            empty;
    }
    procBoundary0to1
    {
        type            processor;
        value           nonuniform List<scalar> 
20
(
-6.47015e-07
-1.06277e-06
-1.32123e-06
-1.59877e-06
-1.84997e-06
-2.05735e-06
-2.21844e-06
-2.33538e-06
-2.41121e-06
-2.44843e-06
-2.44843e-06
-2.41121e-06
-2.33538e-06
-2.21844e-06
-2.05735e-06
-1.84997e-06
-1.59877e-06
-1.32123e-06
-1.06277e-06
-6.47015e-07
)
;
    }
}


// ************************************************************************* //
