/*--------------------------------*- C++ -*----------------------------------*\
| =========                 |                                                 |
| \\      /  F ield         | OpenFOAM: The Open Source CFD Toolbox           |
|  \\    /   O peration     | Version:  2506                                  |
|   \\  /    A nd           | Website:  www.openfoam.com                      |
|    \\/     M anipulation  |                                                 |
\*---------------------------------------------------------------------------*/
FoamFile
{
    version     2.0;
    format      ascii;
    arch        "LSB;label=32;scalar=64";
    class       volVectorField;
    location    "0.132";
    object      U;
}
// * * * * * * * * * * * * * * * * * * * * * * * * * * * * * * * * * * * * * //

dimensions      [0 1 -1 0 0 0 0];

internalField   nonuniform List<vector> 
200
(
(4.7439e-06 -2.44605e-05 0)
(4.0347e-06 -2.04996e-05 0)
(3.47264e-06 -1.70919e-05 0)
(3.02438e-06 -1.41298e-05 0)
(2.66563e-06 -1.15274e-05 0)
(2.37707e-06 -9.21592e-06 0)
(2.13893e-06 -7.14206e-06 0)
(1.93446e-06 -5.28959e-06 0)
(1.92256e-06 -3.70713e-06 0)
(1.94737e-06 -1.92261e-06 0)
(7.7797e-06 -1.76444e-05 0)
(6.62575e-06 -1.48585e-05 0)
(5.70873e-06 -1.24365e-05 0)
(4.97619e-06 -1.03143e-05 0)
(4.39019e-06 -8.43789e-06 0)
(3.92252e-06 -6.7632e-06 0)
(3.54498e-06 -5.25934e-06 0)
(3.2513e-06 -3.94146e-06 0)
(3.19946e-06 -2.92284e-06 0)
(3.75944e-06 -1.76955e-06 0)
(9.71113e-06 -1.54619e-05 0)
(8.3234e-06 -1.30944e-05 0)
(7.20704e-06 -1.10073e-05 0)
(6.30739e-06 -9.1585e-06 0)
(5.5845e-06 -7.50958e-06 0)
(5.00945e-06 -6.02738e-06 0)
(4.55218e-06 -4.68994e-06 0)
(4.19201e-06 -3.51348e-06 0)
(4.12801e-06 -2.61189e-06 0)
(5.11535e-06 -1.55185e-06 0)
(1.18081e-05 -1.38473e-05 0)
(1.01954e-05 -1.17932e-05 0)
(8.87877e-06 -9.95602e-06 0)
(7.8059e-06 -8.31036e-06 0)
(6.9375e-06 -6.83011e-06 0)
(6.24451e-06 -5.49155e-06 0)
(5.694e-06 -4.28075e-06 0)
(5.25703e-06 -3.21854e-06 0)
(5.16904e-06 -2.40534e-06 0)
(6.48147e-06 -1.45151e-06 0)
(1.37237e-05 -1.19891e-05 0)
(1.193e-05 -1.02654e-05 0)
(1.04448e-05 -8.70197e-06 0)
(9.22135e-06 -7.28651e-06 0)
(8.223e-06 -6.00317e-06 0)
(7.42163e-06 -4.83634e-06 0)
(6.78143e-06 -3.77814e-06 0)
(6.26774e-06 -2.85131e-06 0)
(6.15989e-06 -2.145e-06 0)
(7.7514e-06 -1.30165e-06 0)
(1.53206e-05 -9.94186e-06 0)
(1.33981e-05 -8.55541e-06 0)
(1.17856e-05 -7.28083e-06 0)
(1.04437e-05 -6.11511e-06 0)
(9.34015e-06 -5.0502e-06 0)
(8.44875e-06 -4.07683e-06 0)
(7.73192e-06 -3.19139e-06 0)
(7.15116e-06 -2.41544e-06 0)
(7.0277e-06 -1.82475e-06 0)
(8.86152e-06 -1.11053e-06 0)
(1.65731e-05 -7.79655e-06 0)
(1.45666e-05 -6.73882e-06 0)
(1.28646e-05 -5.75466e-06 0)
(1.14356e-05 -4.84639e-06 0)
(1.02523e-05 -4.01106e-06 0)
(9.29087e-06 -3.24387e-06 0)
(8.51319e-06 -2.54385e-06 0)
(7.87859e-06 -1.92951e-06 0)
(7.74463e-06 -1.46144e-06 0)
(9.78084e-06 -8.9051e-07 0)
(1.749e-05 -5.59558e-06 0)
(1.5433e-05 -4.8534e-06 0)
(1.36724e-05 -4.15605e-06 0)
(1.21836e-05 -3.50772e-06 0)
(1.09438e-05 -2.90819e-06 0)
(9.93176e-06 -2.35539e-06 0)
(9.10929e-06 -1.84963e-06 0)
(8.43479e-06 -1.40509e-06 0)
(8.29443e-06 -1.06596e-06 0)
(1.04877e-05 -6.49909e-07 0)
(1.80884e-05 -3.36574e-06 0)
(1.60041e-05 -2.92643e-06 0)
(1.42088e-05 -2.51077e-06 0)
(1.26831e-05 -2.12232e-06 0)
(1.14075e-05 -1.76173e-06 0)
(1.03628e-05 -1.42831e-06 0)
(9.51106e-06 -1.12266e-06 0)
(8.81035e-06 -8.53675e-07 0)
(8.66649e-06 -6.48244e-07 0)
(1.0967e-05 -3.95352e-07 0)
(1.83834e-05 -1.12308e-06 0)
(1.62875e-05 -9.77707e-07 0)
(1.44762e-05 -8.39663e-07 0)
(1.2933e-05 -7.10313e-07 0)
(1.164e-05 -5.89998e-07 0)
(1.05793e-05 -4.78585e-07 0)
(9.71319e-06 -3.76351e-07 0)
(8.99951e-06 -2.86313e-07 0)
(8.85414e-06 -2.1751e-07 0)
(1.1209e-05 -1.32673e-07 0)
(1.83834e-05 1.12308e-06 0)
(1.62875e-05 9.77699e-07 0)
(1.44762e-05 8.39657e-07 0)
(1.2933e-05 7.10308e-07 0)
(1.164e-05 5.89994e-07 0)
(1.05793e-05 4.78582e-07 0)
(9.71319e-06 3.76349e-07 0)
(8.99951e-06 2.86313e-07 0)
(8.85414e-06 2.1751e-07 0)
(1.1209e-05 1.32673e-07 0)
(1.80884e-05 3.36574e-06 0)
(1.60041e-05 2.92642e-06 0)
(1.42088e-05 2.51076e-06 0)
(1.26831e-05 2.12232e-06 0)
(1.14075e-05 1.76173e-06 0)
(1.03628e-05 1.4283e-06 0)
(9.51106e-06 1.12266e-06 0)
(8.81035e-06 8.53674e-07 0)
(8.66649e-06 6.48244e-07 0)
(1.0967e-05 3.95352e-07 0)
(1.749e-05 5.59557e-06 0)
(1.5433e-05 4.8534e-06 0)
(1.36724e-05 4.15604e-06 0)
(1.21836e-05 3.50772e-06 0)
(1.09438e-05 2.90819e-06 0)
(9.93176e-06 2.35538e-06 0)
(9.10929e-06 1.84963e-06 0)
(8.43479e-06 1.40509e-06 0)
(8.29443e-06 1.06596e-06 0)
(1.04877e-05 6.4991e-07 0)
(1.65731e-05 7.79654e-06 0)
(1.45666e-05 6.73882e-06 0)
(1.28646e-05 5.75466e-06 0)
(1.14356e-05 4.84639e-06 0)
(1.02523e-05 4.01106e-06 0)
(9.29088e-06 3.24387e-06 0)
(8.51319e-06 2.54385e-06 0)
(7.8786e-06 1.92951e-06 0)
(7.74463e-06 1.46144e-06 0)
(9.78084e-06 8.9051e-07 0)
(1.53206e-05 9.94186e-06 0)
(1.33981e-05 8.55541e-06 0)
(1.17856e-05 7.28082e-06 0)
(1.04437e-05 6.11511e-06 0)
(9.34016e-06 5.05019e-06 0)
(8.44875e-06 4.07683e-06 0)
(7.73192e-06 3.19139e-06 0)
(7.15116e-06 2.41544e-06 0)
(7.0277e-06 1.82475e-06 0)
(8.86152e-06 1.11053e-06 0)
(1.37237e-05 1.19891e-05 0)
(1.193e-05 1.02654e-05 0)
(1.04449e-05 8.70197e-06 0)
(9.22135e-06 7.28651e-06 0)
(8.22301e-06 6.00317e-06 0)
(7.42163e-06 4.83634e-06 0)
(6.78144e-06 3.77814e-06 0)
(6.26774e-06 2.85131e-06 0)
(6.1599e-06 2.145e-06 0)
(7.7514e-06 1.30165e-06 0)
(1.18081e-05 1.38473e-05 0)
(1.01954e-05 1.17932e-05 0)
(8.87877e-06 9.95602e-06 0)
(7.8059e-06 8.31036e-06 0)
(6.93751e-06 6.83012e-06 0)
(6.24452e-06 5.49156e-06 0)
(5.69401e-06 4.28075e-06 0)
(5.25703e-06 3.21854e-06 0)
(5.16904e-06 2.40534e-06 0)
(6.48147e-06 1.45151e-06 0)
(9.71113e-06 1.54619e-05 0)
(8.3234e-06 1.30944e-05 0)
(7.20705e-06 1.10073e-05 0)
(6.30739e-06 9.15851e-06 0)
(5.5845e-06 7.50958e-06 0)
(5.00946e-06 6.02738e-06 0)
(4.55218e-06 4.68994e-06 0)
(4.19201e-06 3.51349e-06 0)
(4.12801e-06 2.61189e-06 0)
(5.11535e-06 1.55185e-06 0)
(7.7797e-06 1.76444e-05 0)
(6.62575e-06 1.48585e-05 0)
(5.70874e-06 1.24365e-05 0)
(4.97619e-06 1.03143e-05 0)
(4.3902e-06 8.43789e-06 0)
(3.92252e-06 6.7632e-06 0)
(3.54498e-06 5.25935e-06 0)
(3.2513e-06 3.94147e-06 0)
(3.19946e-06 2.92284e-06 0)
(3.75944e-06 1.76955e-06 0)
(4.7439e-06 2.44605e-05 0)
(4.0347e-06 2.04996e-05 0)
(3.47264e-06 1.70919e-05 0)
(3.02438e-06 1.41298e-05 0)
(2.66563e-06 1.15274e-05 0)
(2.37707e-06 9.21592e-06 0)
(2.13893e-06 7.14206e-06 0)
(1.93446e-06 5.28959e-06 0)
(1.92256e-06 3.70713e-06 0)
(1.94737e-06 1.92261e-06 0)
)
;

boundaryField
{
    leftWall
    {
        type            noSlip;
    }
    rightWall
    {
        type            noSlip;
    }
    topWall
    {
        type            noSlip;
    }
    bottomWall
    {
        type            noSlip;
    }
    frontAndBackPlanes
    {
        type            empty;
    }
    procBoundary0to1
    {
        type            processor;
        value           nonuniform List<vector> 
20
(
(5.64803e-06 -2.91113e-05 0)
(9.24459e-06 -2.08703e-05 0)
(1.14453e-05 -1.81546e-05 0)
(1.3786e-05 -1.61395e-05 0)
(1.58845e-05 -1.38774e-05 0)
(1.75994e-05 -1.1434e-05 0)
(1.89182e-05 -8.91668e-06 0)
(1.9867e-05 -6.3712e-06 0)
(2.04778e-05 -3.82056e-06 0)
(2.07764e-05 -1.27286e-06 0)
(2.07764e-05 1.27285e-06 0)
(2.04778e-05 3.82056e-06 0)
(1.9867e-05 6.37119e-06 0)
(1.89182e-05 8.91668e-06 0)
(1.75994e-05 1.1434e-05 0)
(1.58845e-05 1.38774e-05 0)
(1.3786e-05 1.61396e-05 0)
(1.14453e-05 1.81546e-05 0)
(9.24459e-06 2.08703e-05 0)
(5.64802e-06 2.91113e-05 0)
)
;
    }
}


// ************************************************************************* //
