/*--------------------------------*- C++ -*----------------------------------*\
| =========                 |                                                 |
| \\      /  F ield         | OpenFOAM: The Open Source CFD Toolbox           |
|  \\    /   O peration     | Version:  2506                                  |
|   \\  /    A nd           | Website:  www.openfoam.com                      |
|    \\/     M anipulation  |                                                 |
\*---------------------------------------------------------------------------*/
FoamFile
{
    version     2.0;
    format      ascii;
    arch        "LSB;label=32;scalar=64";
    class       surfaceScalarField;
    location    "5.246527766851";
    object      phi;
}
// * * * * * * * * * * * * * * * * * * * * * * * * * * * * * * * * * * * * * //

dimensions      [1 0 -1 0 0 0 0];

oriented        oriented;

internalField   nonuniform List<scalar> 
370
(
-4.81583e-06
-5.46713e-06
-1.81729e-06
-2.51443e-06
-4.87463e-07
-1.89067e-06
2.65441e-07
-1.71438e-06
7.11176e-07
-1.50723e-06
9.86623e-07
-1.32709e-06
1.17122e-06
-1.17549e-06
1.30554e-06
-1.04429e-06
1.40993e-06
-9.30059e-07
-8.30655e-07
-8.76568e-07
-3.35608e-06
-5.61231e-07
-2.49671e-06
-1.15474e-07
-2.02782e-06
2.09135e-07
-1.74786e-06
4.69963e-07
-1.49213e-06
6.79445e-07
-1.27497e-06
8.49469e-07
-1.09796e-06
9.91921e-07
-9.53208e-07
1.11492e-06
-8.33573e-07
-7.33798e-07
-1.18043e-08
-2.72386e-06
-1.40314e-08
-2.1701e-06
8.87085e-08
-1.82704e-06
2.07482e-07
-1.5782e-06
3.43285e-07
-1.35297e-06
4.84747e-07
-1.15441e-06
6.23321e-07
-9.87382e-07
7.55745e-07
-8.49425e-07
8.81127e-07
-7.35815e-07
-6.42099e-07
-4.28348e-08
-2.32654e-06
-1.04715e-09
-1.89587e-06
6.07003e-08
-1.59127e-06
1.33052e-07
-1.36627e-06
2.25319e-07
-1.1729e-06
3.34648e-07
-1.0031e-06
4.53954e-07
-8.57805e-07
5.77494e-07
-7.36039e-07
7.0151e-07
-6.35062e-07
-5.51795e-07
-9.40636e-08
-1.95127e-06
-7.61983e-08
-1.60448e-06
-3.16326e-08
-1.34371e-06
2.89289e-08
-1.14664e-06
1.07981e-07
-9.82532e-07
2.04624e-07
-8.40938e-07
3.14459e-07
-7.19641e-07
4.3262e-07
-6.17278e-07
5.55071e-07
-5.31932e-07
-4.61465e-07
-1.47971e-07
-1.57298e-06
-1.52075e-07
-1.29631e-06
-1.23429e-07
-1.08468e-06
-7.11716e-08
-9.22272e-07
1.68371e-09
-7.88651e-07
9.25836e-08
-6.74877e-07
1.97698e-07
-5.77799e-07
3.12804e-07
-4.95758e-07
4.34056e-07
-4.27198e-07
-3.70571e-07
-2.02839e-07
-1.18748e-06
-2.19664e-07
-9.79244e-07
-2.01639e-07
-8.18465e-07
-1.5577e-07
-6.94391e-07
-8.70607e-08
-5.92869e-07
5.40763e-10
-5.07122e-07
1.0299e-07
-4.34273e-07
2.16237e-07
-3.72762e-07
3.36557e-07
-3.21345e-07
-2.78901e-07
-2.48168e-07
-7.95227e-07
-2.73716e-07
-6.56137e-07
-2.62519e-07
-5.47908e-07
-2.21104e-07
-4.64191e-07
-1.55294e-07
-3.95897e-07
-6.98195e-08
-3.38497e-07
3.09769e-08
-2.89895e-07
1.43022e-07
-2.48918e-07
2.62613e-07
-2.14686e-07
-1.86456e-07
-2.79459e-07
-3.98614e-07
-3.10698e-07
-3.29038e-07
-3.03835e-07
-2.74627e-07
-2.65337e-07
-2.32482e-07
-2.01448e-07
-1.98151e-07
-1.17331e-07
-1.69372e-07
-1.75563e-08
-1.45055e-07
9.37275e-08
-1.24577e-07
2.12798e-07
-1.07482e-07
-9.33954e-08
-2.95354e-07
2.14594e-12
-3.29357e-07
2.31473e-12
-3.24632e-07
2.43625e-12
-2.87606e-07
2.52826e-12
-2.24696e-07
2.61186e-12
-1.4126e-07
2.68618e-12
-4.19887e-08
2.74846e-12
6.89173e-08
2.8015e-12
1.87712e-07
2.8402e-12
2.85921e-12
-2.95354e-07
3.98618e-07
-3.29357e-07
3.29042e-07
-3.24632e-07
2.74632e-07
-2.87606e-07
2.32487e-07
-2.24696e-07
1.98156e-07
-1.4126e-07
1.69377e-07
-4.19889e-08
1.4506e-07
6.89172e-08
1.24583e-07
1.87711e-07
1.07488e-07
9.34011e-08
-2.79459e-07
7.95231e-07
-3.10699e-07
6.56142e-07
-3.03835e-07
5.47913e-07
-2.65337e-07
4.64196e-07
-2.01448e-07
3.95903e-07
-1.17331e-07
3.38503e-07
-1.75567e-08
2.89901e-07
9.37272e-08
2.48924e-07
2.12798e-07
2.14692e-07
1.86461e-07
-2.48169e-07
1.18749e-06
-2.73717e-07
9.79249e-07
-2.6252e-07
8.1847e-07
-2.21105e-07
6.94396e-07
-1.55295e-07
5.92874e-07
-6.982e-08
5.07127e-07
3.09764e-08
4.34278e-07
1.43021e-07
3.72768e-07
2.62612e-07
3.21351e-07
2.78907e-07
-2.0284e-07
1.57298e-06
-2.19664e-07
1.29631e-06
-2.01639e-07
1.08469e-06
-1.55771e-07
9.22277e-07
-8.70614e-08
7.88657e-07
5.40084e-10
6.74882e-07
1.02989e-07
5.77805e-07
2.16236e-07
4.95764e-07
3.36556e-07
4.27204e-07
3.70577e-07
-1.47972e-07
1.95127e-06
-1.52075e-07
1.60448e-06
-1.2343e-07
1.34372e-06
-7.11723e-08
1.14664e-06
1.68298e-09
9.82537e-07
9.25829e-08
8.40944e-07
1.97697e-07
7.19646e-07
3.12803e-07
6.17284e-07
4.34055e-07
5.31937e-07
4.61471e-07
-9.40644e-08
2.32655e-06
-7.6199e-08
1.89587e-06
-3.16333e-08
1.59127e-06
2.89281e-08
1.36627e-06
1.0798e-07
1.17291e-06
2.04623e-07
1.0031e-06
3.14458e-07
8.57811e-07
4.32619e-07
7.36045e-07
5.5507e-07
6.35068e-07
5.51801e-07
-4.28356e-08
2.72387e-06
-1.04793e-09
2.1701e-06
6.06995e-08
1.82704e-06
1.33051e-07
1.57821e-06
2.25318e-07
1.35297e-06
3.34647e-07
1.15442e-06
4.53953e-07
9.87388e-07
5.77493e-07
8.49431e-07
7.01509e-07
7.35821e-07
6.42104e-07
-1.18054e-08
3.35608e-06
-1.40325e-08
2.49672e-06
8.87075e-08
2.02783e-06
2.07481e-07
1.74787e-06
3.43284e-07
1.49214e-06
4.84746e-07
1.27498e-06
6.2332e-07
1.09797e-06
7.55744e-07
9.53214e-07
8.81126e-07
8.33579e-07
7.33804e-07
-8.7657e-07
5.46713e-06
-5.61233e-07
2.51444e-06
-1.15476e-07
1.89068e-06
2.09134e-07
1.71438e-06
4.69962e-07
1.50724e-06
6.79443e-07
1.3271e-06
8.49468e-07
1.1755e-06
9.9192e-07
1.0443e-06
1.11492e-06
9.30064e-07
8.3066e-07
-4.81583e-06
-1.81729e-06
-4.87465e-07
2.65439e-07
7.11174e-07
9.86622e-07
1.17121e-06
1.30554e-06
1.40992e-06
)
;

boundaryField
{
    leftWall
    {
        type            calculated;
        value           nonuniform List<scalar> 
20
(
5.27007e-06
-8.37649e-07
-2.43138e-07
1.11932e-08
7.69628e-08
1.22758e-07
1.66944e-07
2.03215e-07
2.28756e-07
2.41992e-07
2.41992e-07
2.28756e-07
2.03216e-07
1.66945e-07
1.22759e-07
7.69638e-08
1.11944e-08
-2.43136e-07
-8.37647e-07
5.27008e-06
)
;
    }
    rightWall
    {
        type            calculated;
        value           nonuniform List<scalar> 0();
    }
    topWall
    {
        type            calculated;
        value           nonuniform List<scalar> 10(5.42094e-06 -1.55513e-07 8.63499e-07 1.24526e-06 1.32884e-06 1.30352e-06 1.22765e-06 1.1317e-06 1.03243e-06 9.37754e-07);
    }
    bottomWall
    {
        type            calculated;
        value           nonuniform List<scalar> 10(5.42094e-06 -1.55509e-07 8.63502e-07 1.24526e-06 1.32884e-06 1.30352e-06 1.22766e-06 1.13171e-06 1.03243e-06 9.37759e-07);
    }
    frontAndBackPlanes
    {
        type            empty;
    }
    procBoundary1to0
    {
        type            processor;
        value           nonuniform List<scalar> 
20
(
1.49467e-06
1.2235e-06
9.99418e-07
8.2367e-07
6.78782e-07
5.58268e-07
4.60725e-07
3.86496e-07
3.36369e-07
3.1109e-07
3.1109e-07
3.36369e-07
3.86495e-07
4.60725e-07
5.58267e-07
6.78781e-07
8.23669e-07
9.99417e-07
1.2235e-06
1.49467e-06
)
;
    }
}


// ************************************************************************* //
