/*--------------------------------*- C++ -*----------------------------------*\
| =========                 |                                                 |
| \\      /  F ield         | OpenFOAM: The Open Source CFD Toolbox           |
|  \\    /   O peration     | Version:  2506                                  |
|   \\  /    A nd           | Website:  www.openfoam.com                      |
|    \\/     M anipulation  |                                                 |
\*---------------------------------------------------------------------------*/
FoamFile
{
    version     2.0;
    format      ascii;
    arch        "LSB;label=32;scalar=64";
    class       volScalarField;
    location    "5.246527766851";
    object      T;
}
// * * * * * * * * * * * * * * * * * * * * * * * * * * * * * * * * * * * * * //

dimensions      [0 0 0 1 0 0 0];

internalField   nonuniform List<scalar> 
200
(
290.144
280.826
278.455
277.285
276.506
275.923
275.462
275.086
274.772
274.507
287.151
281.191
279.079
277.841
276.986
276.342
275.831
275.414
275.065
274.769
286.034
281.031
279.159
278.002
277.167
276.522
276.003
275.574
275.214
274.907
285.577
280.881
279.146
278.06
277.259
276.628
276.113
275.683
275.318
275.006
285.342
280.775
279.116
278.08
277.31
276.696
276.189
275.762
275.397
275.084
285.202
280.703
279.089
278.087
277.34
276.741
276.243
275.821
275.458
275.144
285.114
280.655
279.068
278.088
277.359
276.772
276.282
275.864
275.503
275.19
285.057
280.624
279.054
278.088
277.37
276.792
276.308
275.894
275.536
275.224
285.024
280.605
279.045
278.088
277.377
276.805
276.325
275.914
275.557
275.246
285.008
280.597
279.04
278.088
277.38
276.811
276.333
275.923
275.567
275.257
285.008
280.597
279.04
278.088
277.38
276.811
276.333
275.923
275.567
275.257
285.024
280.605
279.045
278.088
277.377
276.805
276.325
275.914
275.557
275.246
285.057
280.624
279.054
278.088
277.37
276.792
276.308
275.894
275.536
275.224
285.114
280.655
279.068
278.088
277.359
276.772
276.282
275.864
275.503
275.19
285.202
280.703
279.089
278.087
277.34
276.741
276.243
275.821
275.458
275.144
285.342
280.775
279.116
278.08
277.31
276.696
276.189
275.762
275.397
275.084
285.577
280.881
279.146
278.06
277.259
276.628
276.113
275.683
275.318
275.006
286.034
281.031
279.159
278.002
277.167
276.522
276.003
275.574
275.214
274.907
287.151
281.191
279.079
277.841
276.986
276.342
275.831
275.414
275.065
274.769
290.144
280.826
278.455
277.285
276.506
275.923
275.462
275.086
274.772
274.507
)
;

boundaryField
{
    leftWall
    {
        type            fixedValue;
        value           uniform 373;
    }
    rightWall
    {
        type            fixedValue;
        value           nonuniform List<scalar> 0();
    }
    topWall
    {
        type            fixedValue;
        value           uniform 273;
    }
    bottomWall
    {
        type            fixedValue;
        value           uniform 273;
    }
    frontAndBackPlanes
    {
        type            empty;
    }
    procBoundary1to0
    {
        type            processor;
        value           nonuniform List<scalar> 
20
(
274.281
274.516
274.644
274.738
274.812
274.872
274.918
274.952
274.974
274.985
274.985
274.974
274.952
274.918
274.872
274.812
274.738
274.644
274.516
274.281
)
;
    }
}


// ************************************************************************* //
