/*--------------------------------*- C++ -*----------------------------------*\
| =========                 |                                                 |
| \\      /  F ield         | OpenFOAM: The Open Source CFD Toolbox           |
|  \\    /   O peration     | Version:  2506                                  |
|   \\  /    A nd           | Website:  www.openfoam.com                      |
|    \\/     M anipulation  |                                                 |
\*---------------------------------------------------------------------------*/
FoamFile
{
    version     2.0;
    format      ascii;
    arch        "LSB;label=32;scalar=64";
    class       volVectorField;
    location    "5.246527766851";
    object      U;
}
// * * * * * * * * * * * * * * * * * * * * * * * * * * * * * * * * * * * * * //

dimensions      [0 1 -1 0 0 0 0];

internalField   nonuniform List<vector> 
200
(
(-0.000125376 -0.000133429 0)
(-6.48077e-06 -2.94842e-05 0)
(-8.03068e-06 -2.29393e-05 0)
(-5.44173e-07 -2.25805e-05 0)
(4.2087e-06 -2.09233e-05 0)
(6.95045e-06 -1.90182e-05 0)
(8.70808e-06 -1.71566e-05 0)
(9.94922e-06 -1.54071e-05 0)
(1.08862e-05 -1.38154e-05 0)
(1.16327e-05 -1.2398e-05 0)
(-1.0854e-05 -1.39818e-05 0)
(-3.95462e-06 -1.83921e-05 0)
(-2.60692e-06 -1.63947e-05 0)
(4.16338e-07 -1.47224e-05 0)
(2.84146e-06 -1.2713e-05 0)
(4.68907e-06 -1.09353e-05 0)
(6.17e-06 -9.48234e-06 0)
(7.40031e-06 -8.28632e-06 0)
(8.44983e-06 -7.28763e-06 0)
(9.36811e-06 -6.4452e-06 0)
(4.41889e-08 -2.31455e-05 0)
(-1.58088e-07 -1.8514e-05 0)
(1.38379e-07 -1.53589e-05 0)
(1.1495e-06 -1.31972e-05 0)
(2.21514e-06 -1.12826e-05 0)
(3.32241e-06 -9.62631e-06 0)
(4.44061e-06 -8.24802e-06 0)
(5.52506e-06 -7.11477e-06 0)
(6.55547e-06 -6.18196e-06 0)
(7.5286e-06 -5.41045e-06 0)
(-1.10147e-06 -2.06223e-05 0)
(-2.99991e-07 -1.64996e-05 0)
(1.99875e-07 -1.37278e-05 0)
(7.54258e-07 -1.1762e-05 0)
(1.4093e-06 -1.00821e-05 0)
(2.2191e-06 -8.61164e-06 0)
(3.14146e-06 -7.36112e-06 0)
(4.11957e-06 -6.31899e-06 0)
(5.11388e-06 -5.45772e-06 0)
(6.10067e-06 -4.74796e-06 0)
(-1.91502e-06 -1.72161e-05 0)
(-8.80683e-07 -1.40674e-05 0)
(-4.29641e-07 -1.17806e-05 0)
(-2.58486e-08 -1.00765e-05 0)
(5.15297e-07 -8.64128e-06 0)
(1.22164e-06 -7.39292e-06 0)
(2.05581e-06 -6.32312e-06 0)
(2.97509e-06 -5.42248e-06 0)
(3.94296e-06 -4.67321e-06 0)
(4.93132e-06 -4.05499e-06 0)
(-2.61511e-06 -1.41152e-05 0)
(-1.44355e-06 -1.16214e-05 0)
(-1.10313e-06 -9.73206e-06 0)
(-7.96825e-07 -8.28878e-06 0)
(-3.13192e-07 -7.09374e-06 0)
(3.46166e-07 -6.07025e-06 0)
(1.138e-06 -5.19531e-06 0)
(2.02574e-06 -4.45614e-06 0)
(2.97683e-06 -3.83889e-06 0)
(3.96308e-06 -3.32912e-06 0)
(-3.31396e-06 -1.10671e-05 0)
(-1.962e-06 -9.12077e-06 0)
(-1.68998e-06 -7.62452e-06 0)
(-1.45133e-06 -6.47249e-06 0)
(-1.00883e-06 -5.52834e-06 0)
(-3.78155e-07 -4.72886e-06 0)
(3.89886e-07 -4.04868e-06 0)
(1.25933e-06 -3.47416e-06 0)
(2.19931e-06 -2.99393e-06 0)
(3.18198e-06 -2.5974e-06 0)
(-3.89183e-06 -7.95104e-06 0)
(-2.3834e-06 -6.5553e-06 0)
(-2.15073e-06 -5.47355e-06 0)
(-1.95798e-06 -4.63803e-06 0)
(-1.54492e-06 -3.95624e-06 0)
(-9.33476e-07 -3.3826e-06 0)
(-1.802e-07 -2.89649e-06 0)
(6.77856e-07 -2.48648e-06 0)
(1.61017e-06 -2.14391e-06 0)
(2.58898e-06 -1.86131e-06 0)
(-4.29242e-06 -4.78648e-06 0)
(-2.67322e-06 -3.94828e-06 0)
(-2.46425e-06 -3.29468e-06 0)
(-2.30117e-06 -2.78893e-06 0)
(-1.90775e-06 -2.37701e-06 0)
(-1.30883e-06 -2.03162e-06 0)
(-5.64726e-07 -1.73972e-06 0)
(2.86308e-07 -1.49389e-06 0)
(1.21357e-06 -1.28865e-06 0)
(2.18918e-06 -1.11952e-06 0)
(-4.49688e-06 -1.59794e-06 0)
(-2.81973e-06 -1.31855e-06 0)
(-2.62219e-06 -1.09996e-06 0)
(-2.4739e-06 -9.30667e-07 0)
(-2.09048e-06 -7.92885e-07 0)
(-1.49791e-06 -6.7754e-07 0)
(-7.58342e-07 -5.80191e-07 0)
(8.92424e-08 -4.98275e-07 0)
(1.01394e-06 -4.29929e-07 0)
(1.98774e-06 -3.73638e-07 0)
(-4.49688e-06 1.59797e-06 0)
(-2.81974e-06 1.31859e-06 0)
(-2.62219e-06 1.1e-06 0)
(-2.4739e-06 9.30707e-07 0)
(-2.09048e-06 7.92926e-07 0)
(-1.49791e-06 6.77583e-07 0)
(-7.58343e-07 5.80235e-07 0)
(8.92414e-08 4.9832e-07 0)
(1.01394e-06 4.29974e-07 0)
(1.98774e-06 3.73684e-07 0)
(-4.29243e-06 4.78651e-06 0)
(-2.67323e-06 3.94832e-06 0)
(-2.46425e-06 3.29472e-06 0)
(-2.30117e-06 2.78897e-06 0)
(-1.90775e-06 2.37705e-06 0)
(-1.30883e-06 2.03167e-06 0)
(-5.64729e-07 1.73977e-06 0)
(2.86305e-07 1.49393e-06 0)
(1.21357e-06 1.2887e-06 0)
(2.18918e-06 1.11957e-06 0)
(-3.89183e-06 7.95107e-06 0)
(-2.3834e-06 6.55533e-06 0)
(-2.15074e-06 5.47359e-06 0)
(-1.95799e-06 4.63807e-06 0)
(-1.54492e-06 3.95628e-06 0)
(-9.3348e-07 3.38264e-06 0)
(-1.80205e-07 2.89653e-06 0)
(6.77852e-07 2.48652e-06 0)
(1.61016e-06 2.14395e-06 0)
(2.58898e-06 1.86136e-06 0)
(-3.31397e-06 1.10671e-05 0)
(-1.962e-06 9.1208e-06 0)
(-1.68999e-06 7.62456e-06 0)
(-1.45133e-06 6.47253e-06 0)
(-1.00884e-06 5.52838e-06 0)
(-3.7816e-07 4.72891e-06 0)
(3.8988e-07 4.04873e-06 0)
(1.25932e-06 3.47421e-06 0)
(2.1993e-06 2.99398e-06 0)
(3.18198e-06 2.59745e-06 0)
(-2.61512e-06 1.41152e-05 0)
(-1.44356e-06 1.16215e-05 0)
(-1.10313e-06 9.7321e-06 0)
(-7.96831e-07 8.28882e-06 0)
(-3.13198e-07 7.09378e-06 0)
(3.4616e-07 6.07029e-06 0)
(1.138e-06 5.19535e-06 0)
(2.02574e-06 4.45618e-06 0)
(2.97682e-06 3.83894e-06 0)
(3.96307e-06 3.32916e-06 0)
(-1.91503e-06 1.72161e-05 0)
(-8.80689e-07 1.40674e-05 0)
(-4.29647e-07 1.17806e-05 0)
(-2.58544e-08 1.00765e-05 0)
(5.1529e-07 8.64132e-06 0)
(1.22164e-06 7.39296e-06 0)
(2.0558e-06 6.32316e-06 0)
(2.97508e-06 5.42253e-06 0)
(3.94295e-06 4.67326e-06 0)
(4.93131e-06 4.05504e-06 0)
(-1.10148e-06 2.06224e-05 0)
(-2.99998e-07 1.64996e-05 0)
(1.99869e-07 1.37279e-05 0)
(7.54252e-07 1.1762e-05 0)
(1.4093e-06 1.00822e-05 0)
(2.21909e-06 8.61168e-06 0)
(3.14145e-06 7.36117e-06 0)
(4.11956e-06 6.31904e-06 0)
(5.11387e-06 5.45776e-06 0)
(6.10067e-06 4.74801e-06 0)
(4.41726e-08 2.31455e-05 0)
(-1.58097e-07 1.8514e-05 0)
(1.38371e-07 1.53589e-05 0)
(1.14949e-06 1.31973e-05 0)
(2.21513e-06 1.12826e-05 0)
(3.3224e-06 9.62636e-06 0)
(4.4406e-06 8.24806e-06 0)
(5.52505e-06 7.11481e-06 0)
(6.55546e-06 6.182e-06 0)
(7.5286e-06 5.4105e-06 0)
(-1.0854e-05 1.39818e-05 0)
(-3.95464e-06 1.83921e-05 0)
(-2.60694e-06 1.63947e-05 0)
(4.16326e-07 1.47225e-05 0)
(2.84144e-06 1.2713e-05 0)
(4.68906e-06 1.09354e-05 0)
(6.16999e-06 9.48238e-06 0)
(7.4003e-06 8.28636e-06 0)
(8.44983e-06 7.28767e-06 0)
(9.36811e-06 6.44524e-06 0)
(-0.000125376 0.000133429 0)
(-6.48079e-06 2.94843e-05 0)
(-8.0307e-06 2.29394e-05 0)
(-5.44188e-07 2.25806e-05 0)
(4.20869e-06 2.09234e-05 0)
(6.95044e-06 1.90183e-05 0)
(8.70807e-06 1.71566e-05 0)
(9.94922e-06 1.54072e-05 0)
(1.08862e-05 1.38155e-05 0)
(1.16327e-05 1.23981e-05 0)
)
;

boundaryField
{
    leftWall
    {
        type            noSlip;
    }
    rightWall
    {
        type            noSlip;
    }
    topWall
    {
        type            noSlip;
    }
    bottomWall
    {
        type            noSlip;
    }
    frontAndBackPlanes
    {
        type            empty;
    }
    procBoundary1to0
    {
        type            processor;
        value           nonuniform List<vector> 
20
(
(1.22469e-05 -1.11555e-05 0)
(1.01858e-05 -5.73044e-06 0)
(8.44585e-06 -4.76977e-06 0)
(7.0658e-06 -4.16438e-06 0)
(5.91973e-06 -3.54916e-06 0)
(4.96176e-06 -2.9135e-06 0)
(4.18366e-06 -2.27515e-06 0)
(3.59006e-06 -1.63228e-06 0)
(3.18854e-06 -9.82727e-07 0)
(2.98586e-06 -3.28161e-07 0)
(2.98586e-06 3.28207e-07 0)
(3.18854e-06 9.82773e-07 0)
(3.59005e-06 1.63232e-06 0)
(4.18366e-06 2.2752e-06 0)
(4.96176e-06 2.91355e-06 0)
(5.91973e-06 3.54921e-06 0)
(7.0658e-06 4.16442e-06 0)
(8.44584e-06 4.76981e-06 0)
(1.01858e-05 5.73048e-06 0)
(1.22469e-05 1.11555e-05 0)
)
;
    }
}


// ************************************************************************* //
