/*--------------------------------*- C++ -*----------------------------------*\
| =========                 |                                                 |
| \\      /  F ield         | OpenFOAM: The Open Source CFD Toolbox           |
|  \\    /   O peration     | Version:  2506                                  |
|   \\  /    A nd           | Website:  www.openfoam.com                      |
|    \\/     M anipulation  |                                                 |
\*---------------------------------------------------------------------------*/
FoamFile
{
    version     2.0;
    format      ascii;
    arch        "LSB;label=32;scalar=64";
    class       volScalarField;
    location    "2.37483013";
    object      alphat;
}
// * * * * * * * * * * * * * * * * * * * * * * * * * * * * * * * * * * * * * //

dimensions      [1 -1 -1 0 0 0 0];

internalField   nonuniform List<scalar> 
200
(
0.215268
0.214012
0.21143
0.207379
0.201597
0.193611
0.182508
0.166262
0.138949
0.0769021
2.54765
2.52953
2.49197
2.4321
2.34462
2.21964
2.03737
1.75117
1.22182
0.138954
4.74194
4.69938
4.61088
4.46917
4.2608
3.96134
3.52448
2.85566
1.75121
0.166269
6.37748
6.31114
6.17317
5.95228
5.6281
5.16525
4.50152
3.52454
2.03744
0.182518
7.59157
7.50413
7.32245
7.03229
6.60851
6.00929
5.16532
3.96145
2.21974
0.193622
8.48967
8.38457
8.16654
7.81937
7.31511
6.60861
5.62826
4.26097
2.34473
0.20161
9.14273
9.02366
8.77705
8.38551
7.81952
7.03252
5.95255
4.46942
2.43225
0.207394
9.59803
9.46867
9.2011
8.77726
8.16689
7.32287
6.17358
4.61122
2.49216
0.211447
9.88633
9.75023
9.46896
9.02414
8.38516
7.50476
6.31173
4.69984
2.52977
0.214033
10.0261
9.88669
9.59867
9.14354
8.49057
7.59247
6.37828
4.74254
2.54795
0.215294
10.0261
9.88669
9.59867
9.14354
8.49057
7.59247
6.37828
4.74254
2.54795
0.215294
9.88633
9.75023
9.46896
9.02414
8.38516
7.50476
6.31173
4.69984
2.52977
0.214033
9.59803
9.46868
9.2011
8.77726
8.16689
7.32287
6.17358
4.61122
2.49216
0.211447
9.14273
9.02366
8.77705
8.38551
7.81952
7.03253
5.95255
4.46942
2.43225
0.207394
8.48967
8.38457
8.16654
7.81937
7.31511
6.60862
5.62826
4.26097
2.34473
0.20161
7.59158
7.50413
7.32245
7.03229
6.60851
6.00929
5.16532
3.96145
2.21974
0.193622
6.37749
6.31115
6.17317
5.95228
5.6281
5.16525
4.50152
3.52454
2.03744
0.182518
4.74195
4.69938
4.61088
4.46917
4.2608
3.96134
3.52448
2.85566
1.75121
0.166269
2.54765
2.52954
2.49197
2.4321
2.34462
2.21965
2.03737
1.75117
1.22182
0.138954
0.215268
0.214012
0.21143
0.207379
0.201597
0.193611
0.182508
0.166262
0.138949
0.0769021
)
;

boundaryField
{
    leftWall
    {
        type            compressible::alphatWallFunction;
        value           nonuniform List<scalar> 0();
    }
    rightWall
    {
        type            compressible::alphatWallFunction;
        value           nonuniform List<scalar> 
20
(
0.0172028
0.0291019
0.0341035
0.0369925
0.0389201
0.0402776
0.0412423
0.0419078
0.0423274
0.0425305
0.0425305
0.0423274
0.0419078
0.0412423
0.0402776
0.0389201
0.0369925
0.0341035
0.0291019
0.0172028
)
;
    }
    topWall
    {
        type            compressible::alphatWallFunction;
        value           nonuniform List<scalar> 10(0.0425295 0.0423262 0.0419066 0.041241 0.0402764 0.0389189 0.0369914 0.0341025 0.0291013 0.0172028);
    }
    bottomWall
    {
        type            compressible::alphatWallFunction;
        value           nonuniform List<scalar> 10(0.0425295 0.0423262 0.0419066 0.041241 0.0402764 0.0389189 0.0369914 0.0341025 0.0291013 0.0172028);
    }
    frontAndBackPlanes
    {
        type            empty;
    }
    procBoundary0to1
    {
        type            processor;
        value           nonuniform List<scalar> 
20
(
0.215263
2.54757
4.74177
6.37723
7.59126
8.4893
9.14233
9.5976
9.88589
10.0257
10.0257
9.88589
9.5976
9.14233
8.4893
7.59126
6.37723
4.74177
2.54757
0.215263
)
;
    }
}


// ************************************************************************* //
