/*--------------------------------*- C++ -*----------------------------------*\
| =========                 |                                                 |
| \\      /  F ield         | OpenFOAM: The Open Source CFD Toolbox           |
|  \\    /   O peration     | Version:  2506                                  |
|   \\  /    A nd           | Website:  www.openfoam.com                      |
|    \\/     M anipulation  |                                                 |
\*---------------------------------------------------------------------------*/
FoamFile
{
    version     2.0;
    format      ascii;
    arch        "LSB;label=32;scalar=64";
    class       volScalarField;
    location    "2.37483013";
    object      T;
}
// * * * * * * * * * * * * * * * * * * * * * * * * * * * * * * * * * * * * * //

dimensions      [0 0 0 1 0 0 0];

internalField   nonuniform List<scalar> 
200
(
273.51
273.398
273.308
273.236
273.179
273.134
273.097
273.067
273.039
273.009
273.669
273.53
273.418
273.327
273.254
273.195
273.148
273.109
273.075
273.039
273.765
273.612
273.487
273.386
273.304
273.238
273.184
273.14
273.102
273.062
273.839
273.676
273.543
273.435
273.346
273.274
273.216
273.168
273.127
273.081
273.899
273.73
273.59
273.476
273.383
273.306
273.244
273.193
273.148
273.098
273.948
273.774
273.63
273.511
273.413
273.333
273.268
273.214
273.167
273.113
273.986
273.808
273.661
273.539
273.438
273.356
273.288
273.232
273.182
273.125
274.014
273.834
273.684
273.56
273.457
273.373
273.303
273.245
273.194
273.134
274.033
273.852
273.7
273.574
273.47
273.384
273.313
273.254
273.202
273.14
274.042
273.86
273.708
273.581
273.476
273.39
273.318
273.259
273.206
273.143
274.042
273.86
273.708
273.581
273.476
273.39
273.318
273.259
273.206
273.143
274.033
273.852
273.7
273.574
273.47
273.384
273.313
273.254
273.202
273.14
274.014
273.834
273.684
273.56
273.457
273.373
273.303
273.245
273.194
273.134
273.986
273.808
273.661
273.539
273.438
273.356
273.288
273.232
273.182
273.125
273.948
273.774
273.63
273.511
273.413
273.333
273.268
273.214
273.167
273.113
273.899
273.73
273.59
273.476
273.383
273.306
273.244
273.193
273.148
273.098
273.839
273.676
273.543
273.435
273.346
273.274
273.216
273.168
273.127
273.081
273.765
273.612
273.487
273.386
273.304
273.238
273.184
273.14
273.102
273.062
273.669
273.53
273.418
273.327
273.254
273.195
273.148
273.109
273.075
273.039
273.51
273.398
273.308
273.236
273.179
273.134
273.097
273.067
273.039
273.009
)
;

boundaryField
{
    leftWall
    {
        type            fixedValue;
        value           nonuniform List<scalar> 0();
    }
    rightWall
    {
        type            fixedValue;
        value           uniform 273;
    }
    topWall
    {
        type            fixedValue;
        value           uniform 273;
    }
    bottomWall
    {
        type            fixedValue;
        value           uniform 273;
    }
    frontAndBackPlanes
    {
        type            empty;
    }
    procBoundary0to1
    {
        type            processor;
        value           nonuniform List<scalar> 
20
(
273.652
273.842
273.953
274.037
274.104
274.158
274.199
274.229
274.249
274.259
274.259
274.249
274.229
274.199
274.158
274.104
274.037
273.953
273.842
273.652
)
;
    }
}


// ************************************************************************* //
