/*--------------------------------*- C++ -*----------------------------------*\
| =========                 |                                                 |
| \\      /  F ield         | OpenFOAM: The Open Source CFD Toolbox           |
|  \\    /   O peration     | Version:  2506                                  |
|   \\  /    A nd           | Website:  www.openfoam.com                      |
|    \\/     M anipulation  |                                                 |
\*---------------------------------------------------------------------------*/
FoamFile
{
    version     2.0;
    format      ascii;
    arch        "LSB;label=32;scalar=64";
    class       volVectorField;
    location    "2.37483013";
    object      U;
}
// * * * * * * * * * * * * * * * * * * * * * * * * * * * * * * * * * * * * * //

dimensions      [0 1 -1 0 0 0 0];

internalField   nonuniform List<vector> 
200
(
(2.07473e-05 -2.01986e-05 0)
(2.07309e-05 -1.78169e-05 0)
(2.04792e-05 -1.5841e-05 0)
(2.00237e-05 -1.4276e-05 0)
(1.93894e-05 -1.31535e-05 0)
(1.86218e-05 -1.25202e-05 0)
(1.7698e-05 -1.23788e-05 0)
(1.62571e-05 -1.33921e-05 0)
(1.45559e-05 -2.11941e-05 0)
(4.70745e-05 -4.77671e-05 0)
(1.68354e-05 -9.75225e-06 0)
(1.75252e-05 -8.44962e-06 0)
(1.79799e-05 -7.38152e-06 0)
(1.82341e-05 -6.54276e-06 0)
(1.83259e-05 -5.94654e-06 0)
(1.83112e-05 -5.62666e-06 0)
(1.82123e-05 -5.70539e-06 0)
(1.7853e-05 -6.79138e-06 0)
(1.78478e-05 -1.0402e-05 0)
(2.92136e-05 -1.34797e-05 0)
(1.3507e-05 -8.00784e-06 0)
(1.46303e-05 -6.85725e-06 0)
(1.55411e-05 -5.93484e-06 0)
(1.62613e-05 -5.23351e-06 0)
(1.68182e-05 -4.76482e-06 0)
(1.72378e-05 -4.56744e-06 0)
(1.74654e-05 -4.77144e-06 0)
(1.73053e-05 -5.80873e-06 0)
(1.72562e-05 -8.31818e-06 0)
(2.57199e-05 -1.07004e-05 0)
(1.09085e-05 -6.88866e-06 0)
(1.23041e-05 -5.84308e-06 0)
(1.35125e-05 -5.02e-06 0)
(1.45402e-05 -4.41168e-06 0)
(1.53998e-05 -4.02598e-06 0)
(1.60927e-05 -3.89376e-06 0)
(1.65253e-05 -4.10911e-06 0)
(1.65255e-05 -4.91228e-06 0)
(1.67663e-05 -6.54782e-06 0)
(2.58536e-05 -7.95822e-06 0)
(8.79776e-06 -5.80142e-06 0)
(1.03707e-05 -4.88921e-06 0)
(1.17777e-05 -4.18082e-06 0)
(1.3012e-05 -3.66888e-06 0)
(1.40732e-05 -3.35687e-06 0)
(1.49477e-05 -3.26318e-06 0)
(1.55324e-05 -3.43879e-06 0)
(1.56928e-05 -3.9869e-06 0)
(1.62004e-05 -4.95055e-06 0)
(2.57702e-05 -5.64726e-06 0)
(7.07718e-06 -4.7223e-06 0)
(8.76564e-06 -3.96426e-06 0)
(1.03044e-05 -3.38123e-06 0)
(1.16764e-05 -2.96647e-06 0)
(1.28717e-05 -2.71949e-06 0)
(1.38687e-05 -2.64728e-06 0)
(1.45674e-05 -2.76943e-06 0)
(1.48664e-05 -3.116e-06 0)
(1.55838e-05 -3.65572e-06 0)
(2.54022e-05 -3.9517e-06 0)
(5.71368e-06 -3.6675e-06 0)
(7.4757e-06 -3.0724e-06 0)
(9.09976e-06 -2.61758e-06 0)
(1.05619e-05 -2.29704e-06 0)
(1.18459e-05 -2.10772e-06 0)
(1.29274e-05 -2.04895e-06 0)
(1.3714e-05 -2.12254e-06 0)
(1.41316e-05 -2.326e-06 0)
(1.50184e-05 -2.61149e-06 0)
(2.49719e-05 -2.71082e-06 0)
(4.69555e-06 -2.62224e-06 0)
(6.50251e-06 -2.1946e-06 0)
(8.17978e-06 -1.86898e-06 0)
(9.699e-06 -1.64054e-06 0)
(1.10407e-05 -1.50541e-06 0)
(1.21802e-05 -1.45956e-06 0)
(1.30338e-05 -1.49752e-06 0)
(1.35469e-05 -1.60669e-06 0)
(1.45629e-05 -1.74569e-06 0)
(2.45821e-05 -1.7587e-06 0)
(4.01806e-06 -1.57564e-06 0)
(5.85038e-06 -1.31814e-06 0)
(7.55832e-06 -1.12246e-06 0)
(9.1111e-06 -9.85416e-07 0)
(1.04877e-05 -9.03941e-07 0)
(1.16643e-05 -8.74181e-07 0)
(1.25638e-05 -8.90337e-07 0)
(1.31436e-05 -9.41326e-07 0)
(1.42462e-05 -1.00058e-06 0)
(2.42913e-05 -9.87913e-07 0)
(3.67954e-06 -5.2569e-07 0)
(5.52321e-06 -4.39716e-07 0)
(7.24511e-06 -3.74434e-07 0)
(8.8134e-06 -3.28738e-07 0)
(1.02065e-05 -3.01471e-07 0)
(1.14014e-05 -2.91109e-07 0)
(1.23242e-05 -2.95325e-07 0)
(1.29383e-05 -3.09912e-07 0)
(1.4084e-05 -3.25823e-07 0)
(2.4137e-05 -3.18427e-07 0)
(3.67954e-06 5.25734e-07 0)
(5.52321e-06 4.39759e-07 0)
(7.24511e-06 3.74476e-07 0)
(8.8134e-06 3.28778e-07 0)
(1.02065e-05 3.0151e-07 0)
(1.14014e-05 2.91147e-07 0)
(1.23242e-05 2.95361e-07 0)
(1.29383e-05 3.09948e-07 0)
(1.4084e-05 3.25859e-07 0)
(2.4137e-05 3.18463e-07 0)
(4.01806e-06 1.57569e-06 0)
(5.85038e-06 1.31818e-06 0)
(7.55832e-06 1.1225e-06 0)
(9.11109e-06 9.85456e-07 0)
(1.04877e-05 9.03979e-07 0)
(1.16643e-05 8.74217e-07 0)
(1.25638e-05 8.90372e-07 0)
(1.31436e-05 9.41361e-07 0)
(1.42462e-05 1.00062e-06 0)
(2.42913e-05 9.87948e-07 0)
(4.69554e-06 2.62228e-06 0)
(6.50251e-06 2.19464e-06 0)
(8.17978e-06 1.86902e-06 0)
(9.699e-06 1.64058e-06 0)
(1.10407e-05 1.50544e-06 0)
(1.21802e-05 1.45959e-06 0)
(1.30338e-05 1.49755e-06 0)
(1.35469e-05 1.60673e-06 0)
(1.45629e-05 1.74572e-06 0)
(2.45821e-05 1.75873e-06 0)
(5.71367e-06 3.66754e-06 0)
(7.4757e-06 3.07244e-06 0)
(9.09975e-06 2.61762e-06 0)
(1.05619e-05 2.29707e-06 0)
(1.18459e-05 2.10775e-06 0)
(1.29274e-05 2.04898e-06 0)
(1.3714e-05 2.12257e-06 0)
(1.41316e-05 2.32603e-06 0)
(1.50184e-05 2.61152e-06 0)
(2.49718e-05 2.71085e-06 0)
(7.07717e-06 4.72233e-06 0)
(8.76563e-06 3.9643e-06 0)
(1.03043e-05 3.38127e-06 0)
(1.16764e-05 2.9665e-06 0)
(1.28717e-05 2.71953e-06 0)
(1.38687e-05 2.64731e-06 0)
(1.45674e-05 2.76946e-06 0)
(1.48664e-05 3.11603e-06 0)
(1.55838e-05 3.65575e-06 0)
(2.54021e-05 3.95172e-06 0)
(8.79776e-06 5.80145e-06 0)
(1.03707e-05 4.88924e-06 0)
(1.17777e-05 4.18085e-06 0)
(1.3012e-05 3.66891e-06 0)
(1.40731e-05 3.3569e-06 0)
(1.49477e-05 3.26321e-06 0)
(1.55324e-05 3.43881e-06 0)
(1.56928e-05 3.98693e-06 0)
(1.62004e-05 4.95057e-06 0)
(2.57702e-05 5.64727e-06 0)
(1.09085e-05 6.88869e-06 0)
(1.23041e-05 5.84311e-06 0)
(1.35125e-05 5.02002e-06 0)
(1.45402e-05 4.41171e-06 0)
(1.53997e-05 4.026e-06 0)
(1.60927e-05 3.89379e-06 0)
(1.65253e-05 4.10913e-06 0)
(1.65255e-05 4.9123e-06 0)
(1.67663e-05 6.54784e-06 0)
(2.58535e-05 7.95824e-06 0)
(1.3507e-05 8.00787e-06 0)
(1.46303e-05 6.85727e-06 0)
(1.55411e-05 5.93486e-06 0)
(1.62613e-05 5.23353e-06 0)
(1.68181e-05 4.76484e-06 0)
(1.72378e-05 4.56746e-06 0)
(1.74654e-05 4.77145e-06 0)
(1.73053e-05 5.80875e-06 0)
(1.72562e-05 8.31819e-06 0)
(2.57199e-05 1.07004e-05 0)
(1.68354e-05 9.75227e-06 0)
(1.75252e-05 8.44964e-06 0)
(1.79799e-05 7.38154e-06 0)
(1.82341e-05 6.54278e-06 0)
(1.83259e-05 5.94656e-06 0)
(1.83112e-05 5.62667e-06 0)
(1.82123e-05 5.70541e-06 0)
(1.7853e-05 6.79139e-06 0)
(1.78478e-05 1.04021e-05 0)
(2.92136e-05 1.34797e-05 0)
(2.07473e-05 2.01986e-05 0)
(2.07309e-05 1.78169e-05 0)
(2.04792e-05 1.5841e-05 0)
(2.00237e-05 1.4276e-05 0)
(1.93894e-05 1.31536e-05 0)
(1.86218e-05 1.25202e-05 0)
(1.7698e-05 1.23788e-05 0)
(1.6257e-05 1.33921e-05 0)
(1.45559e-05 2.11941e-05 0)
(4.70745e-05 4.77671e-05 0)
)
;

boundaryField
{
    leftWall
    {
        type            noSlip;
    }
    rightWall
    {
        type            noSlip;
    }
    topWall
    {
        type            noSlip;
    }
    bottomWall
    {
        type            noSlip;
    }
    frontAndBackPlanes
    {
        type            empty;
    }
    procBoundary0to1
    {
        type            processor;
        value           nonuniform List<vector> 
20
(
(2.04763e-05 -2.29929e-05 0)
(1.58696e-05 -1.13081e-05 0)
(1.21526e-05 -9.4085e-06 0)
(9.32633e-06 -8.17696e-06 0)
(7.07446e-06 -6.93369e-06 0)
(5.265e-06 -5.66753e-06 0)
(3.84678e-06 -4.41172e-06 0)
(2.79646e-06 -3.158e-06 0)
(2.10153e-06 -1.89857e-06 0)
(1.75546e-06 -6.3356e-07 0)
(1.75546e-06 6.33603e-07 0)
(2.10153e-06 1.89862e-06 0)
(2.79645e-06 3.15804e-06 0)
(3.84678e-06 4.41176e-06 0)
(5.265e-06 5.66757e-06 0)
(7.07446e-06 6.93373e-06 0)
(9.32632e-06 8.177e-06 0)
(1.21526e-05 9.40852e-06 0)
(1.58696e-05 1.13081e-05 0)
(2.04763e-05 2.2993e-05 0)
)
;
    }
}


// ************************************************************************* //
