/*--------------------------------*- C++ -*----------------------------------*\
| =========                 |                                                 |
| \\      /  F ield         | OpenFOAM: The Open Source CFD Toolbox           |
|  \\    /   O peration     | Version:  2506                                  |
|   \\  /    A nd           | Website:  www.openfoam.com                      |
|    \\/     M anipulation  |                                                 |
\*---------------------------------------------------------------------------*/
FoamFile
{
    version     2.0;
    format      ascii;
    arch        "LSB;label=32;scalar=64";
    class       volScalarField;
    location    "0.32208";
    object      alphat;
}
// * * * * * * * * * * * * * * * * * * * * * * * * * * * * * * * * * * * * * //

dimensions      [1 -1 -1 0 0 0 0];

internalField   nonuniform List<scalar> 
400
(
0.22914
0.39018
0.470617
0.509188
0.526949
0.534694
0.537946
0.539276
0.539802
0.539983
0.539978
0.53979
0.539258
0.537924
0.534674
0.526938
0.509196
0.470654
0.390259
0.229596
0.389655
3.44171
4.59605
5.08323
5.30481
5.40548
5.45023
5.46962
5.4777
5.4806
5.48059
5.47767
5.46959
5.45023
5.40557
5.30509
5.08384
4.59722
3.44367
0.39026
0.469893
4.59403
6.56086
7.45433
7.87045
8.06244
8.14916
8.18738
8.20356
8.20945
8.20945
8.20356
8.18741
8.14929
8.06276
7.87113
7.45563
6.56306
4.59722
0.470655
0.508362
5.08005
7.45279
8.59174
9.14045
9.39972
9.51911
9.5726
9.59557
9.60402
9.60404
9.59562
9.57272
9.51938
9.40027
9.14149
8.59355
7.45563
5.08384
0.509197
0.526068
5.30099
7.86794
9.13937
9.76716
10.0697
10.2114
10.2757
10.3037
10.3141
10.3141
10.3038
10.2759
10.2117
10.0704
9.76844
9.14149
7.87113
5.30509
0.526937
0.533788
5.40132
8.05937
9.39797
10.069
10.3968
10.5521
10.6235
10.6548
10.6665
10.6665
10.6549
10.6237
10.5526
10.3976
10.0704
9.40027
8.06275
5.40557
0.534671
0.537031
5.44591
8.1458
9.51698
10.2102
10.5517
10.7147
10.7902
10.8235
10.836
10.8361
10.8237
10.7905
10.7152
10.5526
10.2117
9.51938
8.14928
5.45022
0.537919
0.538361
5.46523
8.18388
9.57027
10.2744
10.6228
10.7899
10.8677
10.9022
10.9151
10.9152
10.9023
10.8679
10.7905
10.6237
10.2759
9.57271
8.1874
5.46957
0.53925
0.53889
5.47329
8.2
9.59315
10.3022
10.6539
10.8231
10.902
10.9371
10.9503
10.9504
10.9372
10.9023
10.8237
10.6549
10.3038
9.59561
8.20354
5.47764
0.539779
0.539075
5.4762
8.20587
9.60156
10.3125
10.6656
10.8356
10.9149
10.9502
10.9636
10.9636
10.9504
10.9152
10.8361
10.6665
10.3141
9.60403
8.20941
5.48054
0.539963
0.539075
5.4762
8.20587
9.60156
10.3125
10.6656
10.8356
10.9149
10.9502
10.9636
10.9636
10.9504
10.9152
10.8361
10.6665
10.3141
9.60403
8.20941
5.48054
0.539963
0.53889
5.47329
8.2
9.59315
10.3022
10.6539
10.8231
10.902
10.9371
10.9503
10.9504
10.9372
10.9023
10.8237
10.6549
10.3038
9.59561
8.20354
5.47764
0.539779
0.538361
5.46523
8.18388
9.57027
10.2744
10.6228
10.7899
10.8677
10.9022
10.9151
10.9152
10.9023
10.8679
10.7905
10.6237
10.2759
9.57271
8.1874
5.46957
0.53925
0.537031
5.44591
8.1458
9.51698
10.2102
10.5517
10.7147
10.7902
10.8235
10.836
10.8361
10.8237
10.7905
10.7152
10.5526
10.2117
9.51938
8.14928
5.45022
0.537919
0.533788
5.40132
8.05937
9.39797
10.069
10.3968
10.5521
10.6235
10.6548
10.6665
10.6665
10.6549
10.6237
10.5526
10.3976
10.0704
9.40027
8.06275
5.40557
0.534671
0.526068
5.30099
7.86794
9.13937
9.76716
10.0697
10.2114
10.2757
10.3037
10.3141
10.3141
10.3038
10.2759
10.2117
10.0704
9.76844
9.14149
7.87113
5.30509
0.526937
0.508362
5.08005
7.45279
8.59174
9.14045
9.39972
9.51911
9.5726
9.59557
9.60402
9.60404
9.59562
9.57272
9.51938
9.40027
9.14149
8.59355
7.45563
5.08384
0.509197
0.469893
4.59403
6.56086
7.45433
7.87045
8.06244
8.14916
8.18738
8.20356
8.20945
8.20945
8.20356
8.18741
8.14929
8.06276
7.87113
7.45563
6.56306
4.59722
0.470655
0.389655
3.44171
4.59605
5.08323
5.30481
5.40548
5.45023
5.46962
5.4777
5.4806
5.48059
5.47767
5.46959
5.45023
5.40557
5.30509
5.08384
4.59722
3.44367
0.39026
0.22914
0.39018
0.470617
0.509188
0.526949
0.534694
0.537946
0.539276
0.539802
0.539982
0.539979
0.53979
0.539258
0.537924
0.534674
0.526938
0.509196
0.470654
0.390259
0.229596
)
;

boundaryField
{
    leftWall
    {
        type            compressible::alphatWallFunction;
        value           nonuniform List<scalar> 
20
(
0.0594978
0.0758124
0.0818756
0.0841739
0.0850792
0.0854376
0.0855792
0.0856351
0.0856567
0.0856642
0.0856642
0.0856567
0.0856351
0.0855792
0.0854376
0.0850792
0.0841739
0.0818756
0.0758124
0.0594978
)
;
    }
    rightWall
    {
        type            compressible::alphatWallFunction;
        value           nonuniform List<scalar> 
20
(
0.071776
0.0914568
0.0987584
0.101523
0.102611
0.103042
0.103212
0.103278
0.103304
0.103313
0.103313
0.103304
0.103278
0.103212
0.103042
0.102611
0.101523
0.0987584
0.0914568
0.071776
)
;
    }
    topWall
    {
        type            compressible::alphatWallFunction;
        value           nonuniform List<scalar> 
20
(
0.0718015
0.0914684
0.0987647
0.101529
0.102617
0.103047
0.103216
0.103282
0.103307
0.103315
0.103315
0.103305
0.103279
0.103212
0.103042
0.102611
0.101523
0.0987583
0.0914567
0.071776
)
;
    }
    bottomWall
    {
        type            compressible::alphatWallFunction;
        value           nonuniform List<scalar> 
20
(
0.0718015
0.0914684
0.0987647
0.101529
0.102617
0.103047
0.103216
0.103282
0.103307
0.103315
0.103315
0.103305
0.103279
0.103212
0.103042
0.102611
0.101523
0.0987583
0.0914567
0.071776
)
;
    }
    frontAndBackPlanes
    {
        type            empty;
    }
}


// ************************************************************************* //
