/*--------------------------------*- C++ -*----------------------------------*\
| =========                 |                                                 |
| \\      /  F ield         | OpenFOAM: The Open Source CFD Toolbox           |
|  \\    /   O peration     | Version:  2506                                  |
|   \\  /    A nd           | Website:  www.openfoam.com                      |
|    \\/     M anipulation  |                                                 |
\*---------------------------------------------------------------------------*/
FoamFile
{
    version     2.0;
    format      ascii;
    arch        "LSB;label=32;scalar=64";
    class       volScalarField;
    location    "0.32208";
    object      epsilon;
}
// * * * * * * * * * * * * * * * * * * * * * * * * * * * * * * * * * * * * * //

dimensions      [0 2 -3 0 0 0 0];

internalField   nonuniform List<scalar> 
400
(
0.627625
1.06755
1.24003
1.29389
1.31024
1.31521
1.31673
1.31718
1.31731
1.31732
1.31731
1.31724
1.31707
1.31657
1.31501
1.31
1.29362
1.23975
1.0672
0.627009
1.06813
0.796342
0.827341
0.850107
0.860443
0.86454
0.866059
0.866599
0.866783
0.866837
0.866832
0.866771
0.866579
0.866031
0.864505
0.860401
0.850057
0.827268
0.796181
1.0672
1.24077
0.827421
0.819737
0.831077
0.838662
0.842326
0.843877
0.844486
0.844711
0.844783
0.844781
0.844707
0.84448
0.843869
0.842316
0.838651
0.831058
0.819691
0.827268
1.23975
1.2947
0.850212
0.831097
0.838151
0.844491
0.847931
0.849504
0.85016
0.850415
0.8505
0.850499
0.850414
0.850159
0.849503
0.84793
0.84449
0.838142
0.831058
0.850057
1.29362
1.31111
0.860559
0.838687
0.844495
0.850438
0.853819
0.855422
0.856111
0.856385
0.856478
0.856478
0.856385
0.856111
0.855424
0.853822
0.85044
0.84449
0.83865
0.8604
1.30999
1.31615
0.864666
0.842352
0.847933
0.853817
0.857215
0.858849
0.85956
0.859847
0.859946
0.859946
0.859848
0.859561
0.858851
0.85722
0.853822
0.84793
0.842316
0.864503
1.315
1.31773
0.866195
0.843904
0.849506
0.855419
0.858846
0.860503
0.861229
0.861524
0.861626
0.861626
0.861525
0.861231
0.860506
0.858851
0.855424
0.849503
0.843867
0.866027
1.31655
1.31823
0.866743
0.844515
0.850161
0.856106
0.859556
0.861227
0.861961
0.862261
0.862365
0.862365
0.862262
0.861963
0.861231
0.859561
0.856111
0.850158
0.844478
0.866573
1.31704
1.31839
0.866934
0.844742
0.850416
0.856379
0.859842
0.861521
0.86226
0.862561
0.862667
0.862667
0.862562
0.862262
0.861525
0.859848
0.856385
0.850413
0.844704
0.866762
1.3172
1.31844
0.866994
0.844816
0.850501
0.856473
0.859941
0.861623
0.862363
0.862666
0.862772
0.862772
0.862667
0.862365
0.861626
0.859946
0.856478
0.850498
0.844778
0.86682
1.31724
1.31844
0.866994
0.844816
0.850501
0.856473
0.859941
0.861623
0.862363
0.862666
0.862772
0.862772
0.862667
0.862365
0.861626
0.859946
0.856478
0.850498
0.844778
0.86682
1.31724
1.31839
0.866934
0.844742
0.850416
0.856379
0.859842
0.861521
0.86226
0.862561
0.862667
0.862667
0.862562
0.862262
0.861525
0.859848
0.856385
0.850413
0.844704
0.866762
1.3172
1.31823
0.866743
0.844515
0.850161
0.856106
0.859556
0.861227
0.861961
0.862261
0.862365
0.862365
0.862262
0.861963
0.861231
0.859561
0.856111
0.850158
0.844478
0.866573
1.31704
1.31773
0.866195
0.843904
0.849506
0.855419
0.858846
0.860503
0.861229
0.861524
0.861626
0.861626
0.861525
0.861231
0.860506
0.858851
0.855424
0.849503
0.843867
0.866027
1.31655
1.31615
0.864666
0.842352
0.847933
0.853818
0.857215
0.858849
0.85956
0.859847
0.859946
0.859946
0.859848
0.859561
0.858851
0.85722
0.853822
0.84793
0.842316
0.864503
1.315
1.31111
0.860559
0.838687
0.844495
0.850438
0.853819
0.855422
0.856111
0.856385
0.856479
0.856478
0.856385
0.856111
0.855424
0.853822
0.85044
0.84449
0.83865
0.8604
1.30999
1.2947
0.850212
0.831097
0.838151
0.844491
0.847931
0.849504
0.85016
0.850415
0.8505
0.850499
0.850414
0.850159
0.849503
0.84793
0.84449
0.838142
0.831058
0.850057
1.29362
1.24077
0.827421
0.819737
0.831077
0.838662
0.842326
0.843877
0.844486
0.844711
0.844783
0.844781
0.844707
0.84448
0.843869
0.842316
0.838651
0.831058
0.819691
0.827268
1.23975
1.06813
0.796342
0.827341
0.850107
0.860443
0.86454
0.866059
0.866599
0.866783
0.866837
0.866832
0.866771
0.866579
0.866031
0.864505
0.860401
0.850057
0.827268
0.796181
1.0672
0.627625
1.06755
1.24003
1.29389
1.31024
1.31521
1.31673
1.31718
1.31731
1.31733
1.3173
1.31724
1.31707
1.31657
1.31501
1.31
1.29362
1.23975
1.0672
0.627009
)
;

boundaryField
{
    leftWall
    {
        type            epsilonWallFunction;
        blending        stepwise;
        value           nonuniform List<scalar> 
20
(
0.627625
1.06813
1.24077
1.2947
1.31111
1.31615
1.31773
1.31823
1.31839
1.31844
1.31844
1.31839
1.31823
1.31773
1.31615
1.31111
1.2947
1.24077
1.06813
0.627625
)
;
    }
    rightWall
    {
        type            epsilonWallFunction;
        blending        stepwise;
        value           nonuniform List<scalar> 
20
(
0.627009
1.0672
1.23975
1.29362
1.30999
1.315
1.31655
1.31704
1.3172
1.31724
1.31724
1.3172
1.31704
1.31655
1.315
1.30999
1.29362
1.23975
1.0672
0.627009
)
;
    }
    topWall
    {
        type            epsilonWallFunction;
        blending        stepwise;
        value           nonuniform List<scalar> 
20
(
0.627625
1.06755
1.24003
1.29389
1.31024
1.31521
1.31673
1.31718
1.31731
1.31732
1.31731
1.31724
1.31707
1.31657
1.31501
1.31
1.29362
1.23975
1.0672
0.627009
)
;
    }
    bottomWall
    {
        type            epsilonWallFunction;
        blending        stepwise;
        value           nonuniform List<scalar> 
20
(
0.627625
1.06755
1.24003
1.29389
1.31024
1.31521
1.31673
1.31718
1.31731
1.31733
1.3173
1.31724
1.31707
1.31657
1.31501
1.31
1.29362
1.23975
1.0672
0.627009
)
;
    }
    frontAndBackPlanes
    {
        type            empty;
    }
}


// ************************************************************************* //
