/*--------------------------------*- C++ -*----------------------------------*\
| =========                 |                                                 |
| \\      /  F ield         | OpenFOAM: The Open Source CFD Toolbox           |
|  \\    /   O peration     | Version:  2506                                  |
|   \\  /    A nd           | Website:  www.openfoam.com                      |
|    \\/     M anipulation  |                                                 |
\*---------------------------------------------------------------------------*/
FoamFile
{
    version     2.0;
    format      ascii;
    arch        "LSB;label=32;scalar=64";
    class       surfaceScalarField;
    location    "0.32208";
    object      phi;
}
// * * * * * * * * * * * * * * * * * * * * * * * * * * * * * * * * * * * * * //

dimensions      [1 0 -1 0 0 0 0];

oriented        oriented;

internalField   nonuniform List<scalar> 
760
(
-7.20136e-06
-1.53603e-05
1.35047e-06
-1.14333e-05
3.55815e-06
-8.34204e-06
3.9901e-06
-7.13599e-06
3.81572e-06
-6.214e-06
3.44896e-06
-5.46965e-06
3.04547e-06
-4.83205e-06
2.66294e-06
-4.26083e-06
2.32069e-06
-3.74101e-06
2.02289e-06
-3.26761e-06
1.7675e-06
-2.83771e-06
1.55006e-06
-2.44851e-06
1.36537e-06
-2.09714e-06
1.20801e-06
-1.78094e-06
1.07253e-06
-1.49796e-06
9.53285e-07
-1.24745e-06
8.4554e-07
-1.03074e-06
7.58138e-07
-8.63186e-07
7.29962e-07
-7.9278e-07
-6.8671e-07
-6.0359e-06
-1.05576e-05
-1.69062e-06
-1.03318e-05
1.4098e-06
-7.93601e-06
2.92671e-06
-6.58904e-06
3.48094e-06
-5.64398e-06
3.50763e-06
-4.91882e-06
3.28432e-06
-4.32414e-06
2.968e-06
-3.80826e-06
2.63703e-06
-3.3461e-06
2.32616e-06
-2.92717e-06
2.0483e-06
-2.5463e-06
1.80612e-06
-2.20017e-06
1.59783e-06
-1.88607e-06
1.42004e-06
-1.60189e-06
1.26921e-06
-1.34657e-06
1.143e-06
-1.12099e-06
1.0428e-06
-9.3043e-07
9.71687e-07
-7.92018e-07
9.08613e-07
-7.29684e-07
-6.02436e-07
-5.94598e-06
-7.75826e-06
-2.41446e-06
-8.20824e-06
5.10611e-07
-6.85032e-06
2.26977e-06
-5.81979e-06
3.08744e-06
-5.01065e-06
3.30829e-06
-4.36344e-06
3.20808e-06
-3.82892e-06
2.96268e-06
-3.36882e-06
2.66989e-06
-2.96035e-06
2.37832e-06
-2.59185e-06
2.10943e-06
-2.25709e-06
1.87089e-06
-1.95228e-06
1.66388e-06
-1.67479e-06
1.48688e-06
-1.42294e-06
1.33761e-06
-1.19643e-06
1.21429e-06
-9.9727e-07
1.11587e-06
-8.31825e-07
1.03762e-06
-7.13687e-07
9.63466e-07
-6.55498e-07
-5.51954e-07
-6.84034e-06
-5.78738e-06
-2.89914e-06
-6.35608e-06
1.50617e-07
-5.60765e-06
2.04656e-06
-4.91009e-06
2.9911e-06
-4.29412e-06
3.30672e-06
-3.76633e-06
3.26761e-06
-3.31461e-06
3.05704e-06
-2.92023e-06
2.78139e-06
-2.56875e-06
2.4962e-06
-2.25131e-06
2.22771e-06
-1.96258e-06
1.98667e-06
-1.69914e-06
1.77619e-06
-1.45874e-06
1.59597e-06
-1.24016e-06
1.44436e-06
-1.04366e-06
1.31939e-06
-8.71769e-07
1.21844e-06
-7.30633e-07
1.13592e-06
-6.31056e-07
1.0628e-06
-5.82326e-07
-5.02531e-07
-7.60536e-06
-4.28174e-06
-3.25635e-06
-4.82378e-06
-8.79669e-10
-4.41327e-06
2.02365e-06
-3.96918e-06
3.05272e-06
-3.53488e-06
3.42112e-06
-3.13501e-06
3.41156e-06
-2.77626e-06
3.21459e-06
-2.45455e-06
2.94233e-06
-2.16388e-06
2.65452e-06
-1.89947e-06
2.38029e-06
-1.65792e-06
2.13227e-06
-1.43684e-06
1.9148e-06
-1.23463e-06
1.72827e-06
-1.05055e-06
1.57126e-06
-8.85242e-07
1.44145e-06
-7.41312e-07
1.33534e-06
-6.24228e-07
1.24714e-06
-5.42717e-07
1.16902e-06
-5.04145e-07
-4.40844e-07
-8.17995e-06
-3.10509e-06
-3.52377e-06
-3.55042e-06
-7.34052e-08
-3.3317e-06
2.07115e-06
-3.06252e-06
3.17018e-06
-2.77433e-06
3.57585e-06
-2.48997e-06
3.58314e-06
-2.22194e-06
3.39066e-06
-1.97379e-06
3.1157e-06
-1.7453e-06
2.82134e-06
-1.53514e-06
2.53882e-06
-1.34187e-06
2.28207e-06
-1.16424e-06
2.05621e-06
-1.00134e-06
1.86202e-06
-8.52912e-07
1.69811e-06
-7.19738e-07
1.56175e-06
-6.04221e-07
1.44877e-06
-5.10908e-07
1.35287e-06
-4.46656e-07
1.26591e-06
-4.17113e-07
-3.67153e-07
-8.63305e-06
-2.1586e-06
-3.74022e-06
-2.49023e-06
-1.25242e-07
-2.37487e-06
2.12524e-06
-2.21873e-06
3.28602e-06
-2.03826e-06
3.72351e-06
-1.84895e-06
3.74396e-06
-1.66213e-06
3.5537e-06
-1.4837e-06
3.2749e-06
-1.31613e-06
2.97362e-06
-1.16011e-06
2.68287e-06
-1.01557e-06
2.41765e-06
-8.82112e-07
2.18368e-06
-7.59403e-07
1.98196e-06
-6.4747e-07
1.81106e-06
-5.47108e-07
1.66792e-06
-4.6028e-07
1.54786e-06
-3.90478e-07
1.44416e-06
-3.42783e-07
1.34842e-06
-3.21301e-07
-2.83724e-07
-8.96236e-06
-1.36367e-06
-3.90824e-06
-1.58098e-06
-1.70334e-07
-1.52274e-06
2.16407e-06
-1.43845e-06
3.37599e-06
-1.33498e-06
3.84073e-06
-1.22093e-06
3.87289e-06
-1.1041e-06
3.68502e-06
-9.89606e-07
3.40337e-06
-8.80245e-07
3.09656e-06
-7.77336e-07
2.79913e-06
-6.81359e-07
2.52697e-06
-5.92383e-07
2.28626e-06
-5.10381e-07
2.07819e-06
-4.35508e-07
1.9013e-06
-3.68394e-07
1.75229e-06
-3.10425e-07
1.62616e-06
-2.63962e-07
1.51593e-06
-2.32369e-07
1.41304e-06
-2.18328e-07
-1.93072e-07
-9.17789e-06
-6.6021e-07
-4.02399e-06
-7.67407e-07
-2.05792e-07
-7.4313e-07
2.18597e-06
-7.06451e-07
3.43431e-06
-6.59675e-07
3.91931e-06
-6.06388e-07
3.96076e-06
-5.50454e-07
3.77531e-06
-4.94695e-07
3.49215e-06
-4.40833e-07
3.18176e-06
-3.89781e-07
2.87981e-06
-3.41951e-07
2.60286e-06
-2.97486e-07
2.35742e-06
-2.56441e-07
2.14486e-06
-2.18938e-07
1.96366e-06
-1.85325e-07
1.81042e-06
-1.56316e-07
1.67997e-06
-1.33102e-07
1.56515e-06
-1.1736e-07
1.45732e-06
-1.10414e-07
-9.76972e-08
-9.28443e-06
-5.44201e-14
-4.08301e-06
-4.69938e-14
-2.25511e-07
-2.85624e-14
2.19518e-06
-8.15919e-15
3.4624e-06
1.36381e-14
3.95824e-06
4.10644e-14
4.00485e-06
7.3726e-14
3.82097e-06
7.58792e-14
3.53725e-06
5.01056e-14
3.22514e-06
1.37202e-14
2.92095e-06
-2.32705e-14
2.64157e-06
-6.66915e-14
2.39373e-06
-9.49694e-14
2.17884e-06
-1.06727e-13
1.99541e-06
-1.06992e-13
1.83998e-06
-1.0016e-13
1.70729e-06
-9.39256e-14
1.59012e-06
-8.60679e-14
1.47979e-06
-8.51668e-14
-7.56539e-14
-9.28443e-06
6.6021e-07
-4.08301e-06
7.67407e-07
-2.25511e-07
7.4313e-07
2.19518e-06
7.06451e-07
3.4624e-06
6.59675e-07
3.95824e-06
6.06389e-07
4.00485e-06
5.50454e-07
3.82097e-06
4.94695e-07
3.53725e-06
4.40833e-07
3.22514e-06
3.89781e-07
2.92095e-06
3.41951e-07
2.64157e-06
2.97486e-07
2.39373e-06
2.56441e-07
2.17884e-06
2.18938e-07
1.99541e-06
1.85325e-07
1.83998e-06
1.56316e-07
1.70729e-06
1.33102e-07
1.59012e-06
1.17359e-07
1.47979e-06
1.10414e-07
9.76971e-08
-9.17789e-06
1.36367e-06
-4.02399e-06
1.58098e-06
-2.05792e-07
1.52274e-06
2.18597e-06
1.43845e-06
3.43431e-06
1.33498e-06
3.91931e-06
1.22093e-06
3.96076e-06
1.1041e-06
3.77531e-06
9.89607e-07
3.49215e-06
8.80245e-07
3.18176e-06
7.77336e-07
2.87981e-06
6.81359e-07
2.60286e-06
5.92383e-07
2.35742e-06
5.10381e-07
2.14486e-06
4.35508e-07
1.96366e-06
3.68394e-07
1.81042e-06
3.10425e-07
1.67997e-06
2.63962e-07
1.56515e-06
2.32368e-07
1.45732e-06
2.18328e-07
1.93072e-07
-8.96236e-06
2.1586e-06
-3.90824e-06
2.49023e-06
-1.70334e-07
2.37487e-06
2.16407e-06
2.21873e-06
3.37599e-06
2.03826e-06
3.84073e-06
1.84895e-06
3.87289e-06
1.66213e-06
3.68502e-06
1.4837e-06
3.40337e-06
1.31613e-06
3.09656e-06
1.16011e-06
2.79913e-06
1.01557e-06
2.52697e-06
8.82112e-07
2.28626e-06
7.59403e-07
2.07819e-06
6.4747e-07
1.9013e-06
5.47108e-07
1.75229e-06
4.6028e-07
1.62616e-06
3.90478e-07
1.51593e-06
3.42782e-07
1.41304e-06
3.21301e-07
2.83724e-07
-8.63305e-06
3.10509e-06
-3.74022e-06
3.55042e-06
-1.25242e-07
3.3317e-06
2.12524e-06
3.06252e-06
3.28602e-06
2.77433e-06
3.72351e-06
2.48997e-06
3.74396e-06
2.22194e-06
3.5537e-06
1.97379e-06
3.2749e-06
1.7453e-06
2.97362e-06
1.53514e-06
2.68287e-06
1.34187e-06
2.41765e-06
1.16424e-06
2.18368e-06
1.00134e-06
1.98196e-06
8.52911e-07
1.81106e-06
7.19738e-07
1.66792e-06
6.04221e-07
1.54786e-06
5.10908e-07
1.44416e-06
4.46656e-07
1.34842e-06
4.17113e-07
3.67153e-07
-8.17995e-06
4.28174e-06
-3.52377e-06
4.82378e-06
-7.34052e-08
4.41327e-06
2.07115e-06
3.96918e-06
3.17018e-06
3.53488e-06
3.57585e-06
3.13501e-06
3.58314e-06
2.77626e-06
3.39066e-06
2.45455e-06
3.1157e-06
2.16388e-06
2.82134e-06
1.89947e-06
2.53882e-06
1.65792e-06
2.28207e-06
1.43684e-06
2.05621e-06
1.23463e-06
1.86202e-06
1.05055e-06
1.69811e-06
8.85242e-07
1.56175e-06
7.41311e-07
1.44877e-06
6.24228e-07
1.35287e-06
5.42717e-07
1.26591e-06
5.04145e-07
4.40844e-07
-7.60536e-06
5.78738e-06
-3.25636e-06
6.35608e-06
-8.79744e-10
5.60765e-06
2.02365e-06
4.91009e-06
3.05272e-06
4.29412e-06
3.42112e-06
3.76633e-06
3.41156e-06
3.31461e-06
3.21459e-06
2.92023e-06
2.94233e-06
2.56875e-06
2.65452e-06
2.25131e-06
2.38029e-06
1.96258e-06
2.13227e-06
1.69914e-06
1.9148e-06
1.45873e-06
1.72827e-06
1.24016e-06
1.57126e-06
1.04366e-06
1.44145e-06
8.71769e-07
1.33534e-06
7.30633e-07
1.24714e-06
6.31056e-07
1.16902e-06
5.82326e-07
5.02531e-07
-6.84034e-06
7.75826e-06
-2.89914e-06
8.20824e-06
1.50617e-07
6.85032e-06
2.04656e-06
5.81979e-06
2.9911e-06
5.01065e-06
3.30672e-06
4.36344e-06
3.26761e-06
3.82892e-06
3.05704e-06
3.36882e-06
2.78139e-06
2.96035e-06
2.4962e-06
2.59185e-06
2.22771e-06
2.25709e-06
1.98667e-06
1.95228e-06
1.77619e-06
1.67479e-06
1.59597e-06
1.42294e-06
1.44436e-06
1.19643e-06
1.31939e-06
9.9727e-07
1.21844e-06
8.31825e-07
1.13592e-06
7.13687e-07
1.0628e-06
6.55498e-07
5.51954e-07
-5.94598e-06
1.05576e-05
-2.41447e-06
1.03318e-05
5.10611e-07
7.93601e-06
2.26977e-06
6.58904e-06
3.08744e-06
5.64398e-06
3.30829e-06
4.91882e-06
3.20808e-06
4.32414e-06
2.96268e-06
3.80825e-06
2.66989e-06
3.3461e-06
2.37832e-06
2.92717e-06
2.10943e-06
2.5463e-06
1.87089e-06
2.20017e-06
1.66388e-06
1.88607e-06
1.48688e-06
1.60189e-06
1.33761e-06
1.34657e-06
1.21429e-06
1.12099e-06
1.11587e-06
9.3043e-07
1.03762e-06
7.92018e-07
9.63466e-07
7.29684e-07
6.02436e-07
-6.0359e-06
1.53603e-05
-1.69062e-06
1.14333e-05
1.4098e-06
8.34204e-06
2.92671e-06
7.13599e-06
3.48094e-06
6.214e-06
3.50763e-06
5.46965e-06
3.28432e-06
4.83205e-06
2.968e-06
4.26083e-06
2.63703e-06
3.74101e-06
2.32616e-06
3.26761e-06
2.0483e-06
2.83771e-06
1.80612e-06
2.44851e-06
1.59783e-06
2.09714e-06
1.42004e-06
1.78094e-06
1.26921e-06
1.49796e-06
1.143e-06
1.24745e-06
1.0428e-06
1.03074e-06
9.71687e-07
8.63186e-07
9.08613e-07
7.9278e-07
6.8671e-07
-7.20136e-06
1.35047e-06
3.55815e-06
3.9901e-06
3.81572e-06
3.44896e-06
3.04547e-06
2.66294e-06
2.32069e-06
2.02289e-06
1.7675e-06
1.55006e-06
1.36537e-06
1.20801e-06
1.07253e-06
9.53285e-07
8.4554e-07
7.58138e-07
7.29962e-07
)
;

boundaryField
{
    leftWall
    {
        type            calculated;
        value           nonuniform List<scalar> 
20
(
1.61981e-05
7.26618e-06
7.71563e-06
8.94238e-06
9.9987e-06
1.08407e-05
1.15015e-05
1.1973e-05
1.22755e-05
1.24234e-05
1.24234e-05
1.22755e-05
1.1973e-05
1.15015e-05
1.08407e-05
9.9987e-06
8.94238e-06
7.71563e-06
7.26618e-06
1.61981e-05
)
;
    }
    rightWall
    {
        type            calculated;
        value           nonuniform List<scalar> 
20
(
7.08336e-07
8.24345e-07
9.12996e-07
1.01339e-06
1.10735e-06
1.19224e-06
1.26502e-06
1.32242e-06
1.36197e-06
1.38213e-06
1.38213e-06
1.36197e-06
1.32242e-06
1.26502e-06
1.19224e-06
1.10735e-06
1.01339e-06
9.12996e-07
8.24345e-07
7.08336e-07
)
;
    }
    topWall
    {
        type            calculated;
        value           nonuniform List<scalar> 
20
(
1.66618e-05
7.74484e-06
8.42487e-06
7.83664e-06
6.93895e-06
6.09721e-06
5.35664e-06
4.69882e-06
4.10841e-06
3.57675e-06
3.09819e-06
2.66822e-06
2.28285e-06
1.93875e-06
1.63364e-06
1.36679e-06
1.13852e-06
9.50604e-07
8.20962e-07
7.08336e-07
)
;
    }
    bottomWall
    {
        type            calculated;
        value           nonuniform List<scalar> 
20
(
1.66618e-05
7.74484e-06
8.42487e-06
7.83664e-06
6.93895e-06
6.09721e-06
5.35664e-06
4.69882e-06
4.10841e-06
3.57674e-06
3.09819e-06
2.66822e-06
2.28285e-06
1.93875e-06
1.63364e-06
1.36679e-06
1.13852e-06
9.50604e-07
8.20962e-07
7.08336e-07
)
;
    }
    frontAndBackPlanes
    {
        type            empty;
    }
}


// ************************************************************************* //
