/*--------------------------------*- C++ -*----------------------------------*\
| =========                 |                                                 |
| \\      /  F ield         | OpenFOAM: The Open Source CFD Toolbox           |
|  \\    /   O peration     | Version:  2506                                  |
|   \\  /    A nd           | Website:  www.openfoam.com                      |
|    \\/     M anipulation  |                                                 |
\*---------------------------------------------------------------------------*/
FoamFile
{
    version     2.0;
    format      ascii;
    arch        "LSB;label=32;scalar=64";
    class       volScalarField;
    location    "0.32208";
    object      T;
}
// * * * * * * * * * * * * * * * * * * * * * * * * * * * * * * * * * * * * * //

dimensions      [0 0 0 1 0 0 0];

internalField   nonuniform List<scalar> 
400
(
283.288
274.751
273.581
273.244
273.107
273.047
273.021
273.009
273.004
273.002
273.001
273
273
273
273
273
273
273
273
273
281.357
275.667
274.175
273.541
273.249
273.114
273.052
273.023
273.01
273.005
273.002
273.001
273
273
273
273
273
273
273
273
280.905
275.857
274.37
273.672
273.325
273.154
273.072
273.033
273.015
273.007
273.003
273.001
273.001
273
273
273
273
273
273
273
280.791
275.925
274.457
273.741
273.37
273.181
273.086
273.041
273.019
273.009
273.004
273.002
273.001
273
273
273
273
273
273
273
280.756
275.953
274.496
273.775
273.395
273.196
273.095
273.046
273.022
273.01
273.005
273.002
273.001
273
273
273
273
273
273
273
280.744
275.965
274.513
273.792
273.408
273.205
273.101
273.049
273.023
273.011
273.005
273.002
273.001
273
273
273
273
273
273
273
280.739
275.969
274.521
273.8
273.414
273.21
273.104
273.051
273.024
273.011
273.005
273.003
273.001
273.001
273
273
273
273
273
273
280.737
275.971
274.524
273.803
273.417
273.212
273.105
273.051
273.025
273.012
273.006
273.003
273.001
273.001
273
273
273
273
273
273
280.735
275.971
274.525
273.804
273.418
273.213
273.106
273.052
273.025
273.012
273.006
273.003
273.001
273.001
273
273
273
273
273
273
280.734
275.972
274.526
273.805
273.419
273.213
273.106
273.052
273.025
273.012
273.006
273.003
273.001
273.001
273
273
273
273
273
273
280.734
275.972
274.526
273.805
273.419
273.213
273.106
273.052
273.025
273.012
273.006
273.003
273.001
273.001
273
273
273
273
273
273
280.735
275.971
274.525
273.804
273.418
273.213
273.106
273.052
273.025
273.012
273.006
273.003
273.001
273.001
273
273
273
273
273
273
280.737
275.971
274.524
273.803
273.417
273.212
273.105
273.051
273.025
273.012
273.006
273.003
273.001
273.001
273
273
273
273
273
273
280.739
275.969
274.521
273.8
273.414
273.21
273.104
273.051
273.024
273.011
273.005
273.003
273.001
273.001
273
273
273
273
273
273
280.744
275.965
274.513
273.792
273.408
273.205
273.101
273.049
273.023
273.011
273.005
273.002
273.001
273
273
273
273
273
273
273
280.756
275.953
274.496
273.775
273.395
273.196
273.095
273.046
273.022
273.01
273.005
273.002
273.001
273
273
273
273
273
273
273
280.791
275.925
274.457
273.741
273.37
273.181
273.086
273.041
273.019
273.009
273.004
273.002
273.001
273
273
273
273
273
273
273
280.905
275.857
274.37
273.672
273.325
273.154
273.072
273.033
273.015
273.007
273.003
273.001
273.001
273
273
273
273
273
273
273
281.357
275.667
274.175
273.541
273.249
273.114
273.052
273.023
273.01
273.005
273.002
273.001
273
273
273
273
273
273
273
273
283.288
274.751
273.581
273.244
273.107
273.047
273.021
273.009
273.004
273.002
273.001
273
273
273
273
273
273
273
273
273
)
;

boundaryField
{
    leftWall
    {
        type            fixedValue;
        value           uniform 373;
    }
    rightWall
    {
        type            fixedValue;
        value           uniform 273;
    }
    topWall
    {
        type            fixedValue;
        value           uniform 273;
    }
    bottomWall
    {
        type            fixedValue;
        value           uniform 273;
    }
    frontAndBackPlanes
    {
        type            empty;
    }
}


// ************************************************************************* //
