/*--------------------------------*- C++ -*----------------------------------*\
| =========                 |                                                 |
| \\      /  F ield         | OpenFOAM: The Open Source CFD Toolbox           |
|  \\    /   O peration     | Version:  2506                                  |
|   \\  /    A nd           | Website:  www.openfoam.com                      |
|    \\/     M anipulation  |                                                 |
\*---------------------------------------------------------------------------*/
FoamFile
{
    version     2.0;
    format      ascii;
    arch        "LSB;label=32;scalar=64";
    class       volVectorField;
    location    "0.32208";
    object      U;
}
// * * * * * * * * * * * * * * * * * * * * * * * * * * * * * * * * * * * * * //

dimensions      [0 1 -1 0 0 0 0];

internalField   nonuniform List<vector> 
400
(
(-0.000229371 -0.000299038 0)
(2.18297e-05 -0.000172267 0)
(2.29146e-05 -0.000129771 0)
(3.10793e-05 -0.000111271 0)
(3.16955e-05 -9.59732e-05 0)
(2.92466e-05 -8.33536e-05 0)
(2.59896e-05 -7.26604e-05 0)
(2.27694e-05 -6.33129e-05 0)
(1.98461e-05 -5.50252e-05 0)
(1.72839e-05 -4.7646e-05 0)
(1.50781e-05 -4.10702e-05 0)
(1.31965e-05 -3.52098e-05 0)
(1.15981e-05 -2.99868e-05 0)
(1.02397e-05 -2.53343e-05 0)
(9.07843e-06 -2.1201e-05 0)
(8.07287e-06 -1.75547e-05 0)
(7.17614e-06 -1.43904e-05 0)
(6.34424e-06 -1.18356e-05 0)
(6.11959e-06 -1.03249e-05 0)
(8.29323e-06 -8.18777e-06 0)
(-0.000144226 -8.37693e-05 0)
(-1.6961e-05 -8.70235e-05 0)
(2.33086e-06 -6.65544e-05 0)
(1.92541e-05 -5.58875e-05 0)
(2.68536e-05 -4.82894e-05 0)
(2.85981e-05 -4.23809e-05 0)
(2.74137e-05 -3.74164e-05 0)
(2.50456e-05 -3.30218e-05 0)
(2.23647e-05 -2.90372e-05 0)
(1.97633e-05 -2.54039e-05 0)
(1.74012e-05 -2.20939e-05 0)
(1.53256e-05 -1.90858e-05 0)
(1.35325e-05 -1.63596e-05 0)
(1.19978e-05 -1.38977e-05 0)
(1.06928e-05 -1.16893e-05 0)
(9.59425e-06 -9.7383e-06 0)
(8.67108e-06 -8.08379e-06 0)
(7.90506e-06 -6.8725e-06 0)
(7.72185e-06 -6.33497e-06 0)
(1.09215e-05 -5.37957e-06 0)
(-0.000138999 -6.93836e-05 0)
(-2.35114e-05 -7.14563e-05 0)
(-5.20827e-06 -5.82508e-05 0)
(1.31393e-05 -4.88849e-05 0)
(2.28126e-05 -4.18807e-05 0)
(2.64096e-05 -3.64261e-05 0)
(2.64489e-05 -3.19732e-05 0)
(2.48041e-05 -2.81459e-05 0)
(2.25231e-05 -2.474e-05 0)
(2.0129e-05 -2.16607e-05 0)
(1.78671e-05 -1.88606e-05 0)
(1.58345e-05 -1.63112e-05 0)
(1.40568e-05 -1.3992e-05 0)
(1.25277e-05 -1.18888e-05 0)
(1.12311e-05 -9.99724e-06 0)
(1.01498e-05 -8.33078e-06 0)
(9.2421e-06 -6.93828e-06 0)
(8.45561e-06 -5.9374e-06 0)
(8.23523e-06 -5.46251e-06 0)
(1.20775e-05 -4.58347e-06 0)
(-0.000154247 -5.34587e-05 0)
(-2.85657e-05 -5.74578e-05 0)
(-8.49916e-06 -4.95489e-05 0)
(1.08421e-05 -4.27889e-05 0)
(2.15957e-05 -3.71208e-05 0)
(2.61043e-05 -3.24175e-05 0)
(2.67507e-05 -2.84708e-05 0)
(2.54665e-05 -2.50585e-05 0)
(2.33748e-05 -2.20295e-05 0)
(2.1062e-05 -1.92983e-05 0)
(1.88191e-05 -1.68165e-05 0)
(1.67732e-05 -1.45541e-05 0)
(1.49686e-05 -1.24915e-05 0)
(1.34109e-05 -1.06171e-05 0)
(1.20918e-05 -8.93141e-06 0)
(1.09951e-05 -7.45357e-06 0)
(1.00674e-05 -6.23433e-06 0)
(9.2435e-06 -5.36992e-06 0)
(9.02286e-06 -4.94635e-06 0)
(1.36052e-05 -4.24122e-06 0)
(-0.000168512 -3.98323e-05 0)
(-3.25321e-05 -4.42205e-05 0)
(-1.02731e-05 -3.9894e-05 0)
(1.02321e-05 -3.54809e-05 0)
(2.18131e-05 -3.13404e-05 0)
(2.68679e-05 -2.7645e-05 0)
(2.78275e-05 -2.44016e-05 0)
(2.67001e-05 -2.15322e-05 0)
(2.46647e-05 -1.89595e-05 0)
(2.2347e-05 -1.66292e-05 0)
(2.00656e-05 -1.45058e-05 0)
(1.79657e-05 -1.25655e-05 0)
(1.61033e-05 -1.07927e-05 0)
(1.44915e-05 -9.17966e-06 0)
(1.31258e-05 -7.73032e-06 0)
(1.1989e-05 -6.46592e-06 0)
(1.10173e-05 -5.43335e-06 0)
(1.01363e-05 -4.7102e-06 0)
(9.90644e-06 -4.36249e-06 0)
(1.51379e-05 -3.7928e-06 0)
(-0.000179691 -2.91843e-05 0)
(-3.56175e-05 -3.30278e-05 0)
(-1.13869e-05 -3.07131e-05 0)
(1.0235e-05 -2.79944e-05 0)
(2.25409e-05 -2.51825e-05 0)
(2.80077e-05 -2.24851e-05 0)
(2.91663e-05 -1.99956e-05 0)
(2.81102e-05 -1.77234e-05 0)
(2.60727e-05 -1.56496e-05 0)
(2.37122e-05 -1.37523e-05 0)
(2.13679e-05 -1.20132e-05 0)
(1.91977e-05 -1.04178e-05 0)
(1.72655e-05 -8.95649e-06 0)
(1.55891e-05 -7.62543e-06 0)
(1.41657e-05 -6.43068e-06 0)
(1.2976e-05 -5.39276e-06 0)
(1.19472e-05 -4.552e-06 0)
(1.0996e-05 -3.97039e-06 0)
(1.07376e-05 -3.69922e-06 0)
(1.65183e-05 -3.24442e-06 0)
(-0.000188282 -2.08035e-05 0)
(-3.80712e-05 -2.37967e-05 0)
(-1.22717e-05 -2.25699e-05 0)
(1.03356e-05 -2.09633e-05 0)
(2.3283e-05 -1.91578e-05 0)
(2.91068e-05 -1.7307e-05 0)
(3.04285e-05 -1.55133e-05 0)
(2.94217e-05 -1.38212e-05 0)
(2.73697e-05 -1.22447e-05 0)
(2.49614e-05 -1.07842e-05 0)
(2.25535e-05 -9.43521e-06 0)
(2.03148e-05 -8.19194e-06 0)
(1.83154e-05 -7.04993e-06 0)
(1.65762e-05 -6.00857e-06 0)
(1.50954e-05 -5.0746e-06 0)
(1.38513e-05 -4.26576e-06 0)
(1.2764e-05 -3.61439e-06 0)
(1.17432e-05 -3.16806e-06 0)
(1.14514e-05 -2.96523e-06 0)
(1.76873e-05 -2.61229e-06 0)
(-0.000194502 -1.3922e-05 0)
(-3.99635e-05 -1.6041e-05 0)
(-1.29951e-05 -1.53985e-05 0)
(1.03769e-05 -1.44952e-05 0)
(2.3848e-05 -1.34081e-05 0)
(2.99716e-05 -1.22301e-05 0)
(3.14363e-05 -1.10386e-05 0)
(3.04761e-05 -9.88088e-06 0)
(2.84156e-05 -8.78131e-06 0)
(2.59697e-05 -7.75026e-06 0)
(2.35106e-05 -6.79074e-06 0)
(2.12161e-05 -5.90235e-06 0)
(1.91613e-05 -5.08415e-06 0)
(1.73696e-05 -4.33726e-06 0)
(1.58399e-05 -3.66766e-06 0)
(1.4549e-05 -3.08896e-06 0)
(1.34114e-05 -2.62468e-06 0)
(1.23323e-05 -2.30849e-06 0)
(1.20112e-05 -2.16716e-06 0)
(1.86003e-05 -1.91316e-06 0)
(-0.000198519 -8.00072e-06 0)
(-4.12528e-05 -9.25421e-06 0)
(-1.35211e-05 -8.94854e-06 0)
(1.0365e-05 -8.49458e-06 0)
(2.42014e-05 -7.92191e-06 0)
(3.0544e-05 -7.27466e-06 0)
(3.21187e-05 -6.59888e-06 0)
(3.11985e-05 -5.9276e-06 0)
(2.91371e-05 -5.28061e-06 0)
(2.66679e-05 -4.6682e-06 0)
(2.41746e-05 -4.0949e-06 0)
(2.18418e-05 -3.56216e-06 0)
(1.97485e-05 -3.07049e-06 0)
(1.79198e-05 -2.62126e-06 0)
(1.63551e-05 -2.21858e-06 0)
(1.50304e-05 -1.87097e-06 0)
(1.38568e-05 -1.59269e-06 0)
(1.27366e-05 -1.40385e-06 0)
(1.23949e-05 -1.32024e-06 0)
(1.92252e-05 -1.16654e-06 0)
(-0.000200488 -2.61003e-06 0)
(-4.1905e-05 -3.02445e-06 0)
(-1.37988e-05 -2.93408e-06 0)
(1.03432e-05 -2.79681e-06 0)
(2.43666e-05 -2.61893e-06 0)
(3.08246e-05 -2.41321e-06 0)
(3.24594e-05 -2.19475e-06 0)
(3.15628e-05 -1.97518e-06 0)
(2.95029e-05 -1.76186e-06 0)
(2.7023e-05 -1.55891e-06 0)
(2.4513e-05 -1.3683e-06 0)
(2.2161e-05 -1.19083e-06 0)
(2.00481e-05 -1.02685e-06 0)
(1.82004e-05 -8.76945e-07 0)
(1.66176e-05 -7.42575e-07 0)
(1.52753e-05 -6.26644e-07 0)
(1.40832e-05 -5.33925e-07 0)
(1.29419e-05 -4.71108e-07 0)
(1.25895e-05 -4.43417e-07 0)
(1.95423e-05 -3.91918e-07 0)
(-0.000200488 2.61003e-06 0)
(-4.1905e-05 3.02445e-06 0)
(-1.37988e-05 2.93408e-06 0)
(1.03432e-05 2.79681e-06 0)
(2.43666e-05 2.61893e-06 0)
(3.08246e-05 2.41321e-06 0)
(3.24594e-05 2.19476e-06 0)
(3.15628e-05 1.97518e-06 0)
(2.95029e-05 1.76186e-06 0)
(2.7023e-05 1.55891e-06 0)
(2.4513e-05 1.3683e-06 0)
(2.2161e-05 1.19083e-06 0)
(2.00481e-05 1.02685e-06 0)
(1.82004e-05 8.76943e-07 0)
(1.66176e-05 7.42574e-07 0)
(1.52753e-05 6.26642e-07 0)
(1.40832e-05 5.33923e-07 0)
(1.29419e-05 4.71107e-07 0)
(1.25895e-05 4.43416e-07 0)
(1.95423e-05 3.91917e-07 0)
(-0.000198519 8.00072e-06 0)
(-4.12528e-05 9.25421e-06 0)
(-1.35211e-05 8.94854e-06 0)
(1.0365e-05 8.49458e-06 0)
(2.42014e-05 7.92191e-06 0)
(3.0544e-05 7.27466e-06 0)
(3.21187e-05 6.59888e-06 0)
(3.11985e-05 5.9276e-06 0)
(2.91371e-05 5.28061e-06 0)
(2.66679e-05 4.6682e-06 0)
(2.41746e-05 4.0949e-06 0)
(2.18418e-05 3.56216e-06 0)
(1.97485e-05 3.07049e-06 0)
(1.79198e-05 2.62126e-06 0)
(1.63551e-05 2.21858e-06 0)
(1.50304e-05 1.87097e-06 0)
(1.38568e-05 1.59269e-06 0)
(1.27366e-05 1.40385e-06 0)
(1.23949e-05 1.32024e-06 0)
(1.92252e-05 1.16653e-06 0)
(-0.000194502 1.3922e-05 0)
(-3.99635e-05 1.6041e-05 0)
(-1.29951e-05 1.53985e-05 0)
(1.03769e-05 1.44952e-05 0)
(2.3848e-05 1.34081e-05 0)
(2.99716e-05 1.22301e-05 0)
(3.14363e-05 1.10386e-05 0)
(3.04761e-05 9.88088e-06 0)
(2.84156e-05 8.78131e-06 0)
(2.59697e-05 7.75026e-06 0)
(2.35106e-05 6.79074e-06 0)
(2.12161e-05 5.90235e-06 0)
(1.91613e-05 5.08415e-06 0)
(1.73696e-05 4.33726e-06 0)
(1.58399e-05 3.66766e-06 0)
(1.4549e-05 3.08896e-06 0)
(1.34114e-05 2.62468e-06 0)
(1.23323e-05 2.30849e-06 0)
(1.20112e-05 2.16716e-06 0)
(1.86003e-05 1.91316e-06 0)
(-0.000188282 2.08035e-05 0)
(-3.80712e-05 2.37967e-05 0)
(-1.22717e-05 2.25699e-05 0)
(1.03356e-05 2.09633e-05 0)
(2.3283e-05 1.91578e-05 0)
(2.91068e-05 1.7307e-05 0)
(3.04285e-05 1.55133e-05 0)
(2.94217e-05 1.38212e-05 0)
(2.73697e-05 1.22447e-05 0)
(2.49614e-05 1.07842e-05 0)
(2.25535e-05 9.43521e-06 0)
(2.03148e-05 8.19194e-06 0)
(1.83154e-05 7.04992e-06 0)
(1.65762e-05 6.00857e-06 0)
(1.50954e-05 5.07459e-06 0)
(1.38513e-05 4.26576e-06 0)
(1.2764e-05 3.61439e-06 0)
(1.17432e-05 3.16806e-06 0)
(1.14514e-05 2.96523e-06 0)
(1.76873e-05 2.61229e-06 0)
(-0.000179691 2.91843e-05 0)
(-3.56175e-05 3.30278e-05 0)
(-1.13869e-05 3.07131e-05 0)
(1.0235e-05 2.79944e-05 0)
(2.25409e-05 2.51825e-05 0)
(2.80077e-05 2.24851e-05 0)
(2.91663e-05 1.99956e-05 0)
(2.81102e-05 1.77234e-05 0)
(2.60727e-05 1.56496e-05 0)
(2.37122e-05 1.37523e-05 0)
(2.13679e-05 1.20132e-05 0)
(1.91977e-05 1.04178e-05 0)
(1.72655e-05 8.95648e-06 0)
(1.55891e-05 7.62543e-06 0)
(1.41657e-05 6.43068e-06 0)
(1.2976e-05 5.39276e-06 0)
(1.19472e-05 4.552e-06 0)
(1.0996e-05 3.97039e-06 0)
(1.07376e-05 3.69922e-06 0)
(1.65183e-05 3.24442e-06 0)
(-0.000168512 3.98323e-05 0)
(-3.25321e-05 4.42205e-05 0)
(-1.02731e-05 3.9894e-05 0)
(1.02321e-05 3.54809e-05 0)
(2.18131e-05 3.13404e-05 0)
(2.68679e-05 2.7645e-05 0)
(2.78275e-05 2.44016e-05 0)
(2.67002e-05 2.15322e-05 0)
(2.46647e-05 1.89595e-05 0)
(2.2347e-05 1.66292e-05 0)
(2.00656e-05 1.45058e-05 0)
(1.79657e-05 1.25655e-05 0)
(1.61033e-05 1.07927e-05 0)
(1.44915e-05 9.17966e-06 0)
(1.31258e-05 7.73031e-06 0)
(1.1989e-05 6.46592e-06 0)
(1.10173e-05 5.43335e-06 0)
(1.01363e-05 4.7102e-06 0)
(9.90644e-06 4.36249e-06 0)
(1.51379e-05 3.7928e-06 0)
(-0.000154247 5.34587e-05 0)
(-2.85657e-05 5.74578e-05 0)
(-8.49916e-06 4.95489e-05 0)
(1.08421e-05 4.27889e-05 0)
(2.15957e-05 3.71208e-05 0)
(2.61043e-05 3.24175e-05 0)
(2.67507e-05 2.84708e-05 0)
(2.54665e-05 2.50585e-05 0)
(2.33748e-05 2.20295e-05 0)
(2.1062e-05 1.92983e-05 0)
(1.88191e-05 1.68164e-05 0)
(1.67732e-05 1.45541e-05 0)
(1.49686e-05 1.24915e-05 0)
(1.34109e-05 1.06171e-05 0)
(1.20918e-05 8.93141e-06 0)
(1.09951e-05 7.45357e-06 0)
(1.00674e-05 6.23433e-06 0)
(9.2435e-06 5.36992e-06 0)
(9.02286e-06 4.94635e-06 0)
(1.36052e-05 4.24122e-06 0)
(-0.000138999 6.93836e-05 0)
(-2.35114e-05 7.14563e-05 0)
(-5.20827e-06 5.82508e-05 0)
(1.31393e-05 4.88849e-05 0)
(2.28126e-05 4.18807e-05 0)
(2.64096e-05 3.64261e-05 0)
(2.64489e-05 3.19732e-05 0)
(2.48041e-05 2.81459e-05 0)
(2.25231e-05 2.474e-05 0)
(2.01291e-05 2.16607e-05 0)
(1.78671e-05 1.88606e-05 0)
(1.58345e-05 1.63112e-05 0)
(1.40568e-05 1.3992e-05 0)
(1.25277e-05 1.18888e-05 0)
(1.12311e-05 9.99724e-06 0)
(1.01498e-05 8.33078e-06 0)
(9.2421e-06 6.93828e-06 0)
(8.45561e-06 5.9374e-06 0)
(8.23523e-06 5.46251e-06 0)
(1.20775e-05 4.58347e-06 0)
(-0.000144226 8.37693e-05 0)
(-1.6961e-05 8.70235e-05 0)
(2.33086e-06 6.65544e-05 0)
(1.92541e-05 5.58875e-05 0)
(2.68536e-05 4.82894e-05 0)
(2.85981e-05 4.23809e-05 0)
(2.74137e-05 3.74164e-05 0)
(2.50456e-05 3.30218e-05 0)
(2.23647e-05 2.90372e-05 0)
(1.97633e-05 2.54039e-05 0)
(1.74012e-05 2.20939e-05 0)
(1.53256e-05 1.90858e-05 0)
(1.35325e-05 1.63596e-05 0)
(1.19978e-05 1.38977e-05 0)
(1.06928e-05 1.16893e-05 0)
(9.59425e-06 9.7383e-06 0)
(8.67108e-06 8.08379e-06 0)
(7.90507e-06 6.8725e-06 0)
(7.72185e-06 6.33497e-06 0)
(1.09215e-05 5.37957e-06 0)
(-0.000229371 0.000299038 0)
(2.18297e-05 0.000172267 0)
(2.29146e-05 0.000129771 0)
(3.10793e-05 0.000111271 0)
(3.16955e-05 9.59732e-05 0)
(2.92466e-05 8.33536e-05 0)
(2.59896e-05 7.26604e-05 0)
(2.27694e-05 6.33129e-05 0)
(1.98461e-05 5.50252e-05 0)
(1.72839e-05 4.76459e-05 0)
(1.50781e-05 4.10702e-05 0)
(1.31965e-05 3.52098e-05 0)
(1.15981e-05 2.99868e-05 0)
(1.02397e-05 2.53343e-05 0)
(9.07843e-06 2.1201e-05 0)
(8.07287e-06 1.75547e-05 0)
(7.17614e-06 1.43904e-05 0)
(6.34424e-06 1.18356e-05 0)
(6.11959e-06 1.03249e-05 0)
(8.29323e-06 8.18777e-06 0)
)
;

boundaryField
{
    leftWall
    {
        type            noSlip;
    }
    rightWall
    {
        type            noSlip;
    }
    topWall
    {
        type            noSlip;
    }
    bottomWall
    {
        type            noSlip;
    }
    frontAndBackPlanes
    {
        type            empty;
    }
}


// ************************************************************************* //
