/*--------------------------------*- C++ -*----------------------------------*\
| =========                 |                                                 |
| \\      /  F ield         | OpenFOAM: The Open Source CFD Toolbox           |
|  \\    /   O peration     | Version:  2506                                  |
|   \\  /    A nd           | Website:  www.openfoam.com                      |
|    \\/     M anipulation  |                                                 |
\*---------------------------------------------------------------------------*/
FoamFile
{
    version     2.0;
    format      ascii;
    arch        "LSB;label=32;scalar=64";
    class       volScalarField;
    location    "0.32208";
    object      alphat;
}
// * * * * * * * * * * * * * * * * * * * * * * * * * * * * * * * * * * * * * //

dimensions      [1 -1 -1 0 0 0 0];

internalField   nonuniform List<scalar> 
200
(
0.22914
0.39018
0.470617
0.509188
0.526949
0.534694
0.537946
0.539276
0.539802
0.539983
0.389655
3.44171
4.59605
5.08323
5.30481
5.40548
5.45023
5.46962
5.4777
5.4806
0.469893
4.59403
6.56086
7.45433
7.87045
8.06244
8.14916
8.18738
8.20356
8.20945
0.508362
5.08005
7.45279
8.59174
9.14045
9.39972
9.51911
9.5726
9.59557
9.60402
0.526068
5.30099
7.86794
9.13937
9.76716
10.0697
10.2114
10.2757
10.3037
10.3141
0.533788
5.40132
8.05937
9.39797
10.069
10.3968
10.5521
10.6235
10.6548
10.6665
0.537031
5.44591
8.1458
9.51698
10.2102
10.5517
10.7147
10.7902
10.8235
10.836
0.538361
5.46523
8.18388
9.57027
10.2744
10.6228
10.7899
10.8677
10.9022
10.9151
0.53889
5.47329
8.2
9.59315
10.3022
10.6539
10.8231
10.902
10.9371
10.9503
0.539075
5.4762
8.20587
9.60156
10.3125
10.6656
10.8356
10.9149
10.9502
10.9636
0.539075
5.4762
8.20587
9.60156
10.3125
10.6656
10.8356
10.9149
10.9502
10.9636
0.53889
5.47329
8.2
9.59315
10.3022
10.6539
10.8231
10.902
10.9371
10.9503
0.538361
5.46523
8.18388
9.57027
10.2744
10.6228
10.7899
10.8677
10.9022
10.9151
0.537031
5.44591
8.1458
9.51698
10.2102
10.5517
10.7147
10.7902
10.8235
10.836
0.533788
5.40132
8.05937
9.39797
10.069
10.3968
10.5521
10.6235
10.6548
10.6665
0.526068
5.30099
7.86794
9.13937
9.76716
10.0697
10.2114
10.2757
10.3037
10.3141
0.508362
5.08005
7.45279
8.59174
9.14045
9.39972
9.51911
9.5726
9.59557
9.60402
0.469893
4.59403
6.56086
7.45433
7.87045
8.06244
8.14916
8.18738
8.20356
8.20945
0.389655
3.44171
4.59605
5.08323
5.30481
5.40548
5.45023
5.46962
5.4777
5.4806
0.22914
0.39018
0.470617
0.509188
0.526949
0.534694
0.537946
0.539276
0.539802
0.539982
)
;

boundaryField
{
    leftWall
    {
        type            compressible::alphatWallFunction;
        value           nonuniform List<scalar> 
20
(
0.0594978
0.0758124
0.0818756
0.0841739
0.0850792
0.0854376
0.0855792
0.0856351
0.0856567
0.0856642
0.0856642
0.0856567
0.0856351
0.0855792
0.0854376
0.0850792
0.0841739
0.0818756
0.0758124
0.0594978
)
;
    }
    rightWall
    {
        type            compressible::alphatWallFunction;
        value           nonuniform List<scalar> 0();
    }
    topWall
    {
        type            compressible::alphatWallFunction;
        value           nonuniform List<scalar> 10(0.0718015 0.0914684 0.0987647 0.101529 0.102617 0.103047 0.103216 0.103282 0.103307 0.103315);
    }
    bottomWall
    {
        type            compressible::alphatWallFunction;
        value           nonuniform List<scalar> 10(0.0718015 0.0914684 0.0987647 0.101529 0.102617 0.103047 0.103216 0.103282 0.103307 0.103315);
    }
    frontAndBackPlanes
    {
        type            empty;
    }
    procBoundary1to0
    {
        type            processor;
        value           nonuniform List<scalar> 
20
(
0.539978
5.48059
8.20945
9.60404
10.3141
10.6665
10.8361
10.9152
10.9504
10.9636
10.9636
10.9504
10.9152
10.8361
10.6665
10.3141
9.60404
8.20945
5.48059
0.539979
)
;
    }
}


// ************************************************************************* //
