/*--------------------------------*- C++ -*----------------------------------*\
| =========                 |                                                 |
| \\      /  F ield         | OpenFOAM: The Open Source CFD Toolbox           |
|  \\    /   O peration     | Version:  2506                                  |
|   \\  /    A nd           | Website:  www.openfoam.com                      |
|    \\/     M anipulation  |                                                 |
\*---------------------------------------------------------------------------*/
FoamFile
{
    version     2.0;
    format      ascii;
    arch        "LSB;label=32;scalar=64";
    class       volScalarField;
    location    "0.32208";
    object      rho;
}
// * * * * * * * * * * * * * * * * * * * * * * * * * * * * * * * * * * * * * //

dimensions      [1 -3 0 0 0 0 0];

internalField   nonuniform List<scalar> 
200
(
998.8
1000.93
1001.22
1001.3
1001.33
1001.35
1001.36
1001.36
1001.36
1001.36
999.285
1000.7
1001.07
1001.23
1001.3
1001.33
1001.35
1001.35
1001.36
1001.36
999.399
1000.66
1001.02
1001.19
1001.28
1001.32
1001.34
1001.35
1001.36
1001.36
999.427
1000.64
1001
1001.18
1001.27
1001.32
1001.34
1001.35
1001.36
1001.36
999.436
1000.63
1000.99
1001.17
1001.26
1001.31
1001.34
1001.35
1001.35
1001.36
999.439
1000.63
1000.99
1001.17
1001.26
1001.31
1001.34
1001.35
1001.35
1001.36
999.44
1000.63
1000.99
1001.16
1001.26
1001.31
1001.33
1001.35
1001.35
1001.36
999.441
1000.63
1000.98
1001.16
1001.26
1001.31
1001.33
1001.35
1001.35
1001.36
999.441
1000.63
1000.98
1001.16
1001.26
1001.31
1001.33
1001.35
1001.35
1001.36
999.441
1000.63
1000.98
1001.16
1001.26
1001.31
1001.33
1001.35
1001.35
1001.36
999.441
1000.63
1000.98
1001.16
1001.26
1001.31
1001.33
1001.35
1001.35
1001.36
999.441
1000.63
1000.98
1001.16
1001.26
1001.31
1001.33
1001.35
1001.35
1001.36
999.441
1000.63
1000.98
1001.16
1001.26
1001.31
1001.33
1001.35
1001.35
1001.36
999.44
1000.63
1000.99
1001.16
1001.26
1001.31
1001.33
1001.35
1001.35
1001.36
999.439
1000.63
1000.99
1001.17
1001.26
1001.31
1001.34
1001.35
1001.35
1001.36
999.436
1000.63
1000.99
1001.17
1001.26
1001.31
1001.34
1001.35
1001.35
1001.36
999.427
1000.64
1001
1001.18
1001.27
1001.32
1001.34
1001.35
1001.36
1001.36
999.399
1000.66
1001.02
1001.19
1001.28
1001.32
1001.34
1001.35
1001.36
1001.36
999.285
1000.7
1001.07
1001.23
1001.3
1001.33
1001.35
1001.35
1001.36
1001.36
998.8
1000.93
1001.22
1001.3
1001.33
1001.35
1001.36
1001.36
1001.36
1001.36
)
;

boundaryField
{
    leftWall
    {
        type            calculated;
        value           uniform 973.493;
    }
    rightWall
    {
        type            calculated;
        value           nonuniform List<scalar> 0();
    }
    topWall
    {
        type            calculated;
        value           uniform 1001.36;
    }
    bottomWall
    {
        type            calculated;
        value           uniform 1001.36;
    }
    frontAndBackPlanes
    {
        type            empty;
    }
    procBoundary1to0
    {
        type            processor;
        value           nonuniform List<scalar> 
20
(
1001.36
1001.36
1001.36
1001.36
1001.36
1001.36
1001.36
1001.36
1001.36
1001.36
1001.36
1001.36
1001.36
1001.36
1001.36
1001.36
1001.36
1001.36
1001.36
1001.36
)
;
    }
}


// ************************************************************************* //
