/*--------------------------------*- C++ -*----------------------------------*\
| =========                 |                                                 |
| \\      /  F ield         | OpenFOAM: The Open Source CFD Toolbox           |
|  \\    /   O peration     | Version:  2506                                  |
|   \\  /    A nd           | Website:  www.openfoam.com                      |
|    \\/     M anipulation  |                                                 |
\*---------------------------------------------------------------------------*/
FoamFile
{
    version     2.0;
    format      ascii;
    arch        "LSB;label=32;scalar=64";
    class       volScalarField;
    location    "1.247934";
    object      alphat;
}
// * * * * * * * * * * * * * * * * * * * * * * * * * * * * * * * * * * * * * //

dimensions      [1 -1 -1 0 0 0 0];

internalField   nonuniform List<scalar> 
200
(
0.325462
0.32331
0.318929
0.31215
0.30265
0.289813
0.272399
0.247558
0.206753
0.115238
3.64631
3.62166
3.57043
3.48848
3.36809
3.19511
2.94132
2.54036
1.7917
0.206757
6.54315
6.48892
6.37573
6.19329
5.92279
5.53041
4.95203
4.05471
2.54039
0.247565
8.60656
8.5252
8.35521
8.08103
7.67468
7.08766
6.23367
4.95208
2.94138
0.272408
10.0904
9.98589
9.76768
9.4163
8.89749
8.15374
7.08772
5.53051
3.19519
0.289824
11.1626
11.0392
10.782
10.3688
9.76148
8.89757
7.67481
5.92294
3.36819
0.302662
11.9287
11.7906
11.5032
11.0428
10.3689
9.41649
8.08125
6.1935
3.48861
0.312164
12.4557
12.307
11.9978
11.5034
10.7823
9.76802
8.35556
6.37602
3.5706
0.318946
12.7863
12.6307
12.3073
11.7911
11.0398
9.98643
8.52569
6.4893
3.62186
0.32333
12.9457
12.7867
12.4563
11.9294
11.1634
10.0912
8.60724
6.54365
3.64657
0.325486
12.9457
12.7867
12.4563
11.9294
11.1634
10.0912
8.60724
6.54365
3.64657
0.325486
12.7863
12.6307
12.3073
11.7911
11.0398
9.98643
8.52569
6.4893
3.62186
0.32333
12.4557
12.307
11.9978
11.5034
10.7823
9.76802
8.35556
6.37602
3.5706
0.318946
11.9287
11.7906
11.5032
11.0428
10.3689
9.41649
8.08125
6.1935
3.48861
0.312164
11.1626
11.0393
10.782
10.3688
9.76148
8.89757
7.67481
5.92294
3.36819
0.302662
10.0904
9.98589
9.76768
9.4163
8.89749
8.15374
7.08772
5.53051
3.19519
0.289824
8.60656
8.5252
8.35521
8.08103
7.67468
7.08766
6.23367
4.95208
2.94138
0.272408
6.54315
6.48892
6.37573
6.19329
5.92279
5.53041
4.95203
4.05471
2.54039
0.247565
3.64631
3.62166
3.57043
3.48848
3.36809
3.19511
2.94132
2.54036
1.7917
0.206757
0.325462
0.32331
0.318929
0.31215
0.30265
0.289813
0.272399
0.247558
0.206753
0.115238
)
;

boundaryField
{
    leftWall
    {
        type            compressible::alphatWallFunction;
        value           nonuniform List<scalar> 0();
    }
    rightWall
    {
        type            compressible::alphatWallFunction;
        value           nonuniform List<scalar> 
20
(
0.0270219
0.0430787
0.0497431
0.0534623
0.0558501
0.0574653
0.0585683
0.0593021
0.0597512
0.0599645
0.0599645
0.0597512
0.0593021
0.0585683
0.0574653
0.0558501
0.0534623
0.0497431
0.0430787
0.0270219
)
;
    }
    topWall
    {
        type            compressible::alphatWallFunction;
        value           nonuniform List<scalar> 10(0.0599639 0.0597505 0.0593012 0.0585674 0.0574645 0.0558492 0.0534616 0.0497425 0.0430784 0.0270219);
    }
    bottomWall
    {
        type            compressible::alphatWallFunction;
        value           nonuniform List<scalar> 10(0.0599639 0.0597505 0.0593012 0.0585674 0.0574645 0.0558492 0.0534616 0.0497425 0.0430784 0.0270219);
    }
    frontAndBackPlanes
    {
        type            empty;
    }
    procBoundary0to1
    {
        type            processor;
        value           nonuniform List<scalar> 
20
(
0.325458
3.64625
6.54299
8.60632
10.0901
11.1623
11.9283
12.4553
12.7859
12.9453
12.9453
12.7859
12.4553
11.9283
11.1623
10.0901
8.60632
6.54299
3.64625
0.325458
)
;
    }
}


// ************************************************************************* //
