/*--------------------------------*- C++ -*----------------------------------*\
| =========                 |                                                 |
| \\      /  F ield         | OpenFOAM: The Open Source CFD Toolbox           |
|  \\    /   O peration     | Version:  2506                                  |
|   \\  /    A nd           | Website:  www.openfoam.com                      |
|    \\/     M anipulation  |                                                 |
\*---------------------------------------------------------------------------*/
FoamFile
{
    version     2.0;
    format      ascii;
    arch        "LSB;label=32;scalar=64";
    class       surfaceScalarField;
    location    "1.247934";
    object      phi;
}
// * * * * * * * * * * * * * * * * * * * * * * * * * * * * * * * * * * * * * //

dimensions      [1 0 -1 0 0 0 0];

oriented        oriented;

internalField   nonuniform List<scalar> 
370
(
3.19171e-06
-1.8779e-06
3.02769e-06
-1.65003e-06
2.84655e-06
-1.4592e-06
2.6553e-06
-1.30229e-06
2.45847e-06
-1.17837e-06
2.25804e-06
-1.08765e-06
2.0596e-06
-1.03075e-06
1.93277e-06
-1.0564e-06
2.15014e-06
-1.44975e-06
-2.09735e-06
2.81777e-06
-1.60233e-06
2.77212e-06
-1.39261e-06
2.69276e-06
-1.22113e-06
2.5916e-06
-1.0841e-06
2.47869e-06
-9.80605e-07
2.36408e-06
-9.12683e-07
2.26737e-06
-8.92133e-07
2.21536e-06
-9.76334e-07
2.06156e-06
-1.27853e-06
-1.49044e-06
2.42366e-06
-1.37034e-06
2.46243e-06
-1.17785e-06
2.45888e-06
-1.02393e-06
2.42494e-06
-9.04572e-07
2.3707e-06
-8.18651e-07
2.30491e-06
-7.685e-07
2.23372e-06
-7.64962e-07
2.13665e-06
-8.40318e-07
1.90999e-06
-1.02624e-06
-1.14441e-06
2.1133e-06
-1.16324e-06
2.21245e-06
-9.90007e-07
2.26473e-06
-8.53798e-07
2.28062e-06
-7.50814e-07
2.26907e-06
-6.79631e-07
2.23657e-06
-6.41628e-07
2.18379e-06
-6.43415e-07
2.09328e-06
-7.00728e-07
1.92377e-06
-8.2327e-07
-9.03118e-07
1.86604e-06
-9.68602e-07
2.00888e-06
-8.17744e-07
2.10253e-06
-7.00455e-07
2.15573e-06
-6.13417e-07
2.17606e-06
-5.55011e-07
2.16869e-06
-5.2553e-07
2.13385e-06
-5.28156e-07
2.06158e-06
-5.7003e-07
1.93233e-06
-6.53301e-07
-7.08442e-07
1.67146e-06
-7.78359e-07
1.84535e-06
-6.53105e-07
1.96901e-06
-5.56389e-07
2.04957e-06
-4.85495e-07
2.0934e-06
-4.38798e-07
2.10496e-06
-4.1583e-07
2.0851e-06
-4.17622e-07
2.02873e-06
-4.46951e-07
1.92595e-06
-5.03333e-07
-5.43007e-07
1.52393e-06
-5.87675e-07
1.71915e-06
-4.90936e-07
1.86385e-06
-4.16518e-07
1.96384e-06
-3.62364e-07
2.02458e-06
-3.27041e-07
2.05017e-06
-3.09757e-07
2.04226e-06
-3.10458e-07
1.99888e-06
-3.29929e-07
1.91546e-06
-3.67285e-07
-3.95923e-07
1.41865e-06
-3.94319e-07
1.62781e-06
-3.28447e-07
1.78654e-06
-2.77867e-07
1.89968e-06
-2.41199e-07
1.97209e-06
-2.17384e-07
2.00771e-06
-2.05682e-07
2.00884e-06
-2.05697e-07
1.97545e-06
-2.17487e-07
1.90545e-06
-2.4043e-07
-2.59405e-07
1.35126e-06
-1.98054e-07
1.56874e-06
-1.64696e-07
1.73598e-06
-1.39101e-07
1.85723e-06
-1.20577e-07
1.93696e-06
-1.08564e-07
1.97907e-06
-1.02629e-07
1.98627e-06
-1.02476e-07
1.95954e-06
-1.08022e-07
1.89783e-06
-1.18977e-07
-1.28497e-07
1.31846e-06
4.57347e-12
1.53981e-06
4.2395e-12
1.71105e-06
3.7623e-12
1.83616e-06
3.25723e-12
1.91942e-06
2.78239e-12
1.96471e-06
2.35579e-12
1.97494e-06
1.98483e-12
1.95152e-06
1.67421e-12
1.89376e-06
1.45311e-12
1.24787e-12
1.31846e-06
1.98063e-07
1.53981e-06
1.64704e-07
1.71105e-06
1.39108e-07
1.83616e-06
1.20583e-07
1.91942e-06
1.0857e-07
1.96471e-06
1.02634e-07
1.97494e-06
1.0248e-07
1.95152e-06
1.08026e-07
1.89376e-06
1.1898e-07
1.28499e-07
1.35126e-06
3.94327e-07
1.56874e-06
3.28455e-07
1.73598e-06
2.77874e-07
1.85723e-06
2.41205e-07
1.93696e-06
2.17389e-07
1.97907e-06
2.05686e-07
1.98627e-06
2.05701e-07
1.95953e-06
2.1749e-07
1.89783e-06
2.40432e-07
2.59407e-07
1.41865e-06
5.87682e-07
1.62781e-06
4.90942e-07
1.78654e-06
4.16524e-07
1.89968e-06
3.62369e-07
1.97209e-06
3.27045e-07
2.00771e-06
3.09761e-07
2.00884e-06
3.10461e-07
1.97544e-06
3.29931e-07
1.90545e-06
3.67287e-07
3.95925e-07
1.52393e-06
7.78364e-07
1.71915e-06
6.53109e-07
1.86385e-06
5.56393e-07
1.96384e-06
4.85499e-07
2.02458e-06
4.38801e-07
2.05017e-06
4.15832e-07
2.04225e-06
4.17625e-07
1.99888e-06
4.46953e-07
1.91546e-06
5.03335e-07
5.43008e-07
1.67146e-06
9.68605e-07
1.84535e-06
8.17747e-07
1.96901e-06
7.00458e-07
2.04957e-06
6.13419e-07
2.0934e-06
5.55014e-07
2.10495e-06
5.25532e-07
2.0851e-06
5.28158e-07
2.02873e-06
5.70032e-07
1.92595e-06
6.53302e-07
7.08443e-07
1.86604e-06
1.16324e-06
2.00888e-06
9.90009e-07
2.10253e-06
8.53799e-07
2.15573e-06
7.50815e-07
2.17606e-06
6.79632e-07
2.16869e-06
6.41629e-07
2.13385e-06
6.43416e-07
2.06158e-06
7.00729e-07
1.93233e-06
8.23271e-07
9.03119e-07
2.1133e-06
1.37034e-06
2.21245e-06
1.17784e-06
2.26472e-06
1.02393e-06
2.28062e-06
9.04572e-07
2.26907e-06
8.18652e-07
2.23657e-06
7.685e-07
2.18379e-06
7.64963e-07
2.09327e-06
8.40319e-07
1.92376e-06
1.02624e-06
1.14441e-06
2.42366e-06
1.60233e-06
2.46243e-06
1.3926e-06
2.45888e-06
1.22113e-06
2.42493e-06
1.08409e-06
2.3707e-06
9.80604e-07
2.30491e-06
9.12682e-07
2.23372e-06
8.92133e-07
2.13665e-06
9.76334e-07
1.90999e-06
1.27853e-06
1.49044e-06
2.81777e-06
1.8779e-06
2.77212e-06
1.65003e-06
2.69276e-06
1.4592e-06
2.5916e-06
1.30229e-06
2.47869e-06
1.17837e-06
2.36408e-06
1.08765e-06
2.26737e-06
1.03075e-06
2.21536e-06
1.0564e-06
2.06156e-06
1.44975e-06
2.09735e-06
3.19171e-06
3.02769e-06
2.84655e-06
2.6553e-06
2.45846e-06
2.25804e-06
2.0596e-06
1.93277e-06
2.15014e-06
)
;

boundaryField
{
    leftWall
    {
        type            calculated;
        value           nonuniform List<scalar> 0();
    }
    rightWall
    {
        type            calculated;
        value           nonuniform List<scalar> 
20
(
2.12441e-06
1.46208e-06
1.57697e-06
1.70072e-06
1.76074e-06
1.78792e-06
1.79944e-06
1.80284e-06
1.80278e-06
1.80211e-06
1.80211e-06
1.80278e-06
1.80284e-06
1.79944e-06
1.78792e-06
1.76074e-06
1.70071e-06
1.57696e-06
1.46208e-06
2.12441e-06
)
;
    }
    topWall
    {
        type            calculated;
        value           nonuniform List<scalar> 10(2.21315e-06 1.96056e-06 1.74647e-06 1.56914e-06 1.42803e-06 1.32411e-06 1.25291e-06 1.19785e-06 1.23994e-06 2.12441e-06);
    }
    bottomWall
    {
        type            calculated;
        value           nonuniform List<scalar> 10(2.21314e-06 1.96055e-06 1.74646e-06 1.56914e-06 1.42803e-06 1.3241e-06 1.25291e-06 1.19785e-06 1.23994e-06 2.12441e-06);
    }
    frontAndBackPlanes
    {
        type            empty;
    }
    procBoundary0to1
    {
        type            processor;
        value           nonuniform List<scalar> 
20
(
-3.32786e-06
-2.81527e-06
-2.32917e-06
-1.95621e-06
-1.66541e-06
-1.44086e-06
-1.27333e-06
-1.15534e-06
-1.08056e-06
-1.04438e-06
-1.04438e-06
-1.08056e-06
-1.15534e-06
-1.27333e-06
-1.44086e-06
-1.66541e-06
-1.95621e-06
-2.32917e-06
-2.81527e-06
-3.32786e-06
)
;
    }
}


// ************************************************************************* //
