/*--------------------------------*- C++ -*----------------------------------*\
| =========                 |                                                 |
| \\      /  F ield         | OpenFOAM: The Open Source CFD Toolbox           |
|  \\    /   O peration     | Version:  2506                                  |
|   \\  /    A nd           | Website:  www.openfoam.com                      |
|    \\/     M anipulation  |                                                 |
\*---------------------------------------------------------------------------*/
FoamFile
{
    version     2.0;
    format      ascii;
    arch        "LSB;label=32;scalar=64";
    class       volScalarField;
    location    "1.247934";
    object      T;
}
// * * * * * * * * * * * * * * * * * * * * * * * * * * * * * * * * * * * * * //

dimensions      [0 0 0 1 0 0 0];

internalField   nonuniform List<scalar> 
200
(
273.145
273.1
273.068
273.046
273.031
273.02
273.013
273.008
273.004
273.001
273.224
273.158
273.111
273.077
273.053
273.036
273.024
273.016
273.009
273.004
273.278
273.199
273.141
273.1
273.07
273.048
273.033
273.022
273.014
273.007
273.322
273.233
273.167
273.119
273.085
273.059
273.041
273.028
273.018
273.01
273.358
273.262
273.19
273.137
273.098
273.069
273.049
273.034
273.023
273.012
273.389
273.286
273.209
273.152
273.109
273.078
273.056
273.039
273.026
273.015
273.413
273.306
273.225
273.164
273.119
273.086
273.061
273.043
273.03
273.017
273.43
273.32
273.236
273.173
273.126
273.091
273.066
273.047
273.032
273.018
273.442
273.33
273.244
273.18
273.131
273.095
273.069
273.049
273.034
273.019
273.448
273.335
273.248
273.183
273.134
273.097
273.07
273.05
273.035
273.02
273.448
273.335
273.248
273.183
273.134
273.097
273.07
273.05
273.035
273.02
273.442
273.33
273.244
273.18
273.131
273.095
273.069
273.049
273.034
273.019
273.43
273.32
273.236
273.173
273.126
273.091
273.066
273.047
273.032
273.018
273.413
273.306
273.225
273.164
273.119
273.086
273.061
273.043
273.03
273.017
273.389
273.286
273.209
273.152
273.109
273.078
273.056
273.039
273.026
273.015
273.358
273.262
273.19
273.137
273.098
273.069
273.049
273.034
273.023
273.012
273.322
273.233
273.167
273.119
273.085
273.059
273.041
273.028
273.018
273.01
273.278
273.199
273.141
273.1
273.07
273.048
273.033
273.022
273.014
273.007
273.224
273.158
273.111
273.077
273.053
273.036
273.024
273.016
273.009
273.004
273.145
273.1
273.068
273.046
273.031
273.02
273.013
273.008
273.004
273.001
)
;

boundaryField
{
    leftWall
    {
        type            fixedValue;
        value           nonuniform List<scalar> 0();
    }
    rightWall
    {
        type            fixedValue;
        value           uniform 273;
    }
    topWall
    {
        type            fixedValue;
        value           uniform 273;
    }
    bottomWall
    {
        type            fixedValue;
        value           uniform 273;
    }
    frontAndBackPlanes
    {
        type            empty;
    }
    procBoundary0to1
    {
        type            processor;
        value           nonuniform List<scalar> 
20
(
273.208
273.315
273.385
273.441
273.487
273.524
273.553
273.574
273.588
273.595
273.595
273.588
273.574
273.553
273.524
273.487
273.441
273.385
273.315
273.208
)
;
    }
}


// ************************************************************************* //
