/*--------------------------------*- C++ -*----------------------------------*\
| =========                 |                                                 |
| \\      /  F ield         | OpenFOAM: The Open Source CFD Toolbox           |
|  \\    /   O peration     | Version:  2506                                  |
|   \\  /    A nd           | Website:  www.openfoam.com                      |
|    \\/     M anipulation  |                                                 |
\*---------------------------------------------------------------------------*/
FoamFile
{
    version     2.0;
    format      ascii;
    arch        "LSB;label=32;scalar=64";
    class       volVectorField;
    location    "1.247934";
    object      U;
}
// * * * * * * * * * * * * * * * * * * * * * * * * * * * * * * * * * * * * * //

dimensions      [0 1 -1 0 0 0 0];

internalField   nonuniform List<vector> 
200
(
(2.61148e-05 -2.97954e-05 0)
(2.48906e-05 -2.62941e-05 0)
(2.34942e-05 -2.3347e-05 0)
(2.19937e-05 -2.09128e-05 0)
(2.04371e-05 -1.8981e-05 0)
(1.88738e-05 -1.75576e-05 0)
(1.72927e-05 -1.6638e-05 0)
(1.55084e-05 -1.67776e-05 0)
(1.4375e-05 -2.18231e-05 0)
(3.5321e-05 -3.54334e-05 0)
(2.26112e-05 -1.39657e-05 0)
(2.24086e-05 -1.21859e-05 0)
(2.18844e-05 -1.07168e-05 0)
(2.11419e-05 -9.52836e-06 0)
(2.02712e-05 -8.61244e-06 0)
(1.93628e-05 -7.98349e-06 0)
(1.84607e-05 -7.73285e-06 0)
(1.74709e-05 -8.32977e-06 0)
(1.71414e-05 -1.08366e-05 0)
(2.74049e-05 -1.25312e-05 0)
(1.91092e-05 -1.16047e-05 0)
(1.96144e-05 -1.00205e-05 0)
(1.97301e-05 -8.7425e-06 0)
(1.95585e-05 -7.73898e-06 0)
(1.91927e-05 -7.00233e-06 0)
(1.87103e-05 -6.55327e-06 0)
(1.81012e-05 -6.4866e-06 0)
(1.7233e-05 -7.11907e-06 0)
(1.67261e-05 -8.86227e-06 0)
(2.51246e-05 -1.00422e-05 0)
(1.6382e-05 -1.00519e-05 0)
(1.73839e-05 -8.5916e-06 0)
(1.79669e-05 -7.43584e-06 0)
(1.82195e-05 -6.55298e-06 0)
(1.82256e-05 -5.93284e-06 0)
(1.80471e-05 -5.59069e-06 0)
(1.76458e-05 -5.5943e-06 0)
(1.6911e-05 -6.12138e-06 0)
(1.65952e-05 -7.32549e-06 0)
(2.55241e-05 -8.14559e-06 0)
(1.42302e-05 -8.51817e-06 0)
(1.5586e-05 -7.2157e-06 0)
(1.65125e-05 -6.19876e-06 0)
(1.70822e-05 -5.43855e-06 0)
(1.73668e-05 -4.92255e-06 0)
(1.74162e-05 -4.65674e-06 0)
(1.71848e-05 -4.67745e-06 0)
(1.65935e-05 -5.06807e-06 0)
(1.64872e-05 -5.86962e-06 0)
(2.58385e-05 -6.4172e-06 0)
(1.25517e-05 -6.98218e-06 0)
(1.41559e-05 -5.87245e-06 0)
(1.53299e-05 -5.01356e-06 0)
(1.61315e-05 -4.3812e-06 0)
(1.66208e-05 -3.96196e-06 0)
(1.68394e-05 -3.75412e-06 0)
(1.67412e-05 -3.77201e-06 0)
(1.62714e-05 -4.04993e-06 0)
(1.63263e-05 -4.59091e-06 0)
(2.59171e-05 -4.97347e-06 0)
(1.12889e-05 -5.46146e-06 0)
(1.30616e-05 -4.5694e-06 0)
(1.44078e-05 -3.88242e-06 0)
(1.53732e-05 -3.38135e-06 0)
(1.60089e-05 -3.05356e-06 0)
(1.63507e-05 -2.89314e-06 0)
(1.63545e-05 -2.90222e-06 0)
(1.59832e-05 -3.09224e-06 0)
(1.61609e-05 -3.45731e-06 0)
(2.59048e-05 -3.73532e-06 0)
(1.03934e-05 -3.92919e-06 0)
(1.22751e-05 -3.27563e-06 0)
(1.37351e-05 -2.77357e-06 0)
(1.48106e-05 -2.40924e-06 0)
(1.55462e-05 -2.17236e-06 0)
(1.59742e-05 -2.0562e-06 0)
(1.6053e-05 -2.05788e-06 0)
(1.57571e-05 -2.1795e-06 0)
(1.60241e-05 -2.41555e-06 0)
(2.5864e-05 -2.61029e-06 0)
(9.82297e-06 -2.37166e-06 0)
(1.17689e-05 -1.97277e-06 0)
(1.32975e-05 -1.66667e-06 0)
(1.44404e-05 -1.44508e-06 0)
(1.52381e-05 -1.30134e-06 0)
(1.5721e-05 -1.23039e-06 0)
(1.58492e-05 -1.22892e-06 0)
(1.5604e-05 -1.2963e-06 0)
(1.59286e-05 -1.42938e-06 0)
(2.58228e-05 -1.54615e-06 0)
(9.54612e-06 -7.93151e-07 0)
(1.15217e-05 -6.59045e-07 0)
(1.30824e-05 -5.56177e-07 0)
(1.42572e-05 -4.81777e-07 0)
(1.50845e-05 -4.33543e-07 0)
(1.55942e-05 -4.09626e-07 0)
(1.57468e-05 -4.08679e-07 0)
(1.55271e-05 -4.30224e-07 0)
(1.58797e-05 -4.73292e-07 0)
(2.57982e-05 -5.12333e-07 0)
(9.54612e-06 7.93224e-07 0)
(1.15217e-05 6.59113e-07 0)
(1.30824e-05 5.56237e-07 0)
(1.42572e-05 4.81829e-07 0)
(1.50845e-05 4.33588e-07 0)
(1.55941e-05 4.09664e-07 0)
(1.57468e-05 4.0871e-07 0)
(1.55271e-05 4.30251e-07 0)
(1.58797e-05 4.73315e-07 0)
(2.57982e-05 5.12353e-07 0)
(9.82297e-06 2.37173e-06 0)
(1.17689e-05 1.97283e-06 0)
(1.32975e-05 1.66673e-06 0)
(1.44404e-05 1.44513e-06 0)
(1.52381e-05 1.30138e-06 0)
(1.5721e-05 1.23042e-06 0)
(1.58492e-05 1.22895e-06 0)
(1.5604e-05 1.29633e-06 0)
(1.59286e-05 1.4294e-06 0)
(2.58228e-05 1.54617e-06 0)
(1.03934e-05 3.92925e-06 0)
(1.22751e-05 3.27568e-06 0)
(1.37351e-05 2.77362e-06 0)
(1.48106e-05 2.40928e-06 0)
(1.55462e-05 2.1724e-06 0)
(1.59742e-05 2.05623e-06 0)
(1.6053e-05 2.05791e-06 0)
(1.57571e-05 2.17952e-06 0)
(1.60241e-05 2.41557e-06 0)
(2.5864e-05 2.61031e-06 0)
(1.12889e-05 5.46151e-06 0)
(1.30616e-05 4.56944e-06 0)
(1.44078e-05 3.88246e-06 0)
(1.53732e-05 3.38139e-06 0)
(1.60089e-05 3.05359e-06 0)
(1.63506e-05 2.89317e-06 0)
(1.63545e-05 2.90224e-06 0)
(1.59832e-05 3.09225e-06 0)
(1.61609e-05 3.45733e-06 0)
(2.59048e-05 3.73534e-06 0)
(1.25518e-05 6.98221e-06 0)
(1.41559e-05 5.87248e-06 0)
(1.53299e-05 5.01358e-06 0)
(1.61315e-05 4.38123e-06 0)
(1.66208e-05 3.96198e-06 0)
(1.68394e-05 3.75414e-06 0)
(1.67412e-05 3.77202e-06 0)
(1.62714e-05 4.04995e-06 0)
(1.63263e-05 4.59092e-06 0)
(2.5917e-05 4.97348e-06 0)
(1.42302e-05 8.51818e-06 0)
(1.5586e-05 7.21571e-06 0)
(1.65125e-05 6.19877e-06 0)
(1.70822e-05 5.43856e-06 0)
(1.73668e-05 4.92257e-06 0)
(1.74162e-05 4.65675e-06 0)
(1.71848e-05 4.67746e-06 0)
(1.65935e-05 5.06808e-06 0)
(1.64872e-05 5.86963e-06 0)
(2.58385e-05 6.41721e-06 0)
(1.6382e-05 1.00519e-05 0)
(1.73839e-05 8.5916e-06 0)
(1.79669e-05 7.43584e-06 0)
(1.82195e-05 6.55298e-06 0)
(1.82256e-05 5.93284e-06 0)
(1.80471e-05 5.59069e-06 0)
(1.76458e-05 5.5943e-06 0)
(1.6911e-05 6.12139e-06 0)
(1.65952e-05 7.3255e-06 0)
(2.5524e-05 8.14559e-06 0)
(1.91092e-05 1.16047e-05 0)
(1.96144e-05 1.00205e-05 0)
(1.97301e-05 8.74249e-06 0)
(1.95585e-05 7.73897e-06 0)
(1.91926e-05 7.00233e-06 0)
(1.87103e-05 6.55327e-06 0)
(1.81012e-05 6.4866e-06 0)
(1.7233e-05 7.11907e-06 0)
(1.67261e-05 8.86227e-06 0)
(2.51246e-05 1.00422e-05 0)
(2.26113e-05 1.39657e-05 0)
(2.24086e-05 1.21858e-05 0)
(2.18844e-05 1.07168e-05 0)
(2.11419e-05 9.52835e-06 0)
(2.02712e-05 8.61243e-06 0)
(1.93628e-05 7.98348e-06 0)
(1.84607e-05 7.73285e-06 0)
(1.74709e-05 8.32977e-06 0)
(1.71414e-05 1.08366e-05 0)
(2.74049e-05 1.25312e-05 0)
(2.61148e-05 2.97954e-05 0)
(2.48906e-05 2.62941e-05 0)
(2.34942e-05 2.33469e-05 0)
(2.19937e-05 2.09128e-05 0)
(2.04371e-05 1.8981e-05 0)
(1.88738e-05 1.75576e-05 0)
(1.72927e-05 1.6638e-05 0)
(1.55084e-05 1.67776e-05 0)
(1.43749e-05 2.18231e-05 0)
(3.5321e-05 3.54334e-05 0)
)
;

boundaryField
{
    leftWall
    {
        type            noSlip;
    }
    rightWall
    {
        type            noSlip;
    }
    topWall
    {
        type            noSlip;
    }
    bottomWall
    {
        type            noSlip;
    }
    frontAndBackPlanes
    {
        type            empty;
    }
    procBoundary0to1
    {
        type            processor;
        value           nonuniform List<vector> 
20
(
(2.70615e-05 -3.39139e-05 0)
(2.23654e-05 -1.61067e-05 0)
(1.81029e-05 -1.35488e-05 0)
(1.48733e-05 -1.18675e-05 0)
(1.238e-05 -1.01488e-05 0)
(1.04712e-05 -8.37574e-06 0)
(9.05756e-06 -6.58257e-06 0)
(8.06788e-06 -4.75034e-06 0)
(7.44351e-06 -2.87255e-06 0)
(7.14233e-06 -9.61483e-07 0)
(7.14234e-06 9.61557e-07 0)
(7.44351e-06 2.87262e-06 0)
(8.06789e-06 4.7504e-06 0)
(9.05757e-06 6.58261e-06 0)
(1.04713e-05 8.37577e-06 0)
(1.23801e-05 1.01488e-05 0)
(1.48733e-05 1.18675e-05 0)
(1.8103e-05 1.35488e-05 0)
(2.23654e-05 1.61067e-05 0)
(2.70615e-05 3.39139e-05 0)
)
;
    }
}


// ************************************************************************* //
