/*--------------------------------*- C++ -*----------------------------------*\
| =========                 |                                                 |
| \\      /  F ield         | OpenFOAM: The Open Source CFD Toolbox           |
|  \\    /   O peration     | Version:  2506                                  |
|   \\  /    A nd           | Website:  www.openfoam.com                      |
|    \\/     M anipulation  |                                                 |
\*---------------------------------------------------------------------------*/
FoamFile
{
    version     2.0;
    format      ascii;
    arch        "LSB;label=32;scalar=64";
    class       surfaceScalarField;
    location    "5.246527766851";
    object      phi;
}
// * * * * * * * * * * * * * * * * * * * * * * * * * * * * * * * * * * * * * //

dimensions      [1 0 -1 0 0 0 0];

oriented        oriented;

internalField   nonuniform List<scalar> 
370
(
1.56476e-06
-7.44427e-07
1.62213e-06
-6.70293e-07
1.66675e-06
-6.07783e-07
1.69728e-06
-5.57348e-07
1.71152e-06
-5.21302e-07
1.70617e-06
-5.03436e-07
1.68802e-06
-5.06099e-07
1.76351e-06
-5.77975e-07
2.36761e-06
-1.11253e-06
-2.46435e-06
1.32058e-06
-6.50086e-07
1.40773e-06
-5.799e-07
1.48569e-06
-5.21886e-07
1.5549e-06
-4.76151e-07
1.6156e-06
-4.44805e-07
1.66833e-06
-4.32051e-07
1.72461e-06
-4.51411e-07
1.81645e-06
-5.7252e-07
1.75752e-06
-9.7173e-07
-1.50536e-06
1.11083e-06
-5.64675e-07
1.21563e-06
-5.00958e-07
1.31403e-06
-4.49492e-07
1.40616e-06
-4.10205e-07
1.49171e-06
-3.84777e-07
1.57045e-06
-3.77474e-07
1.64193e-06
-4.01727e-07
1.67735e-06
-4.99068e-07
1.52772e-06
-7.26548e-07
-9.68001e-07
9.42578e-07
-4.83487e-07
1.05741e-06
-4.28035e-07
1.16766e-06
-3.84196e-07
1.2728e-06
-3.51811e-07
1.37188e-06
-3.32076e-07
1.46299e-06
-3.28258e-07
1.53953e-06
-3.49168e-07
1.57291e-06
-4.14525e-07
1.49185e-06
-5.39566e-07
-6.33623e-07
8.01589e-07
-4.03899e-07
9.21962e-07
-3.57662e-07
1.03875e-06
-3.21777e-07
1.15082e-06
-2.96024e-07
1.25661e-06
-2.81078e-07
1.35324e-06
-2.78838e-07
1.43339e-06
-2.93713e-07
1.47692e-06
-3.32787e-07
1.44551e-06
-3.94047e-07
-4.11496e-07
6.82925e-07
-3.24466e-07
8.06057e-07
-2.87747e-07
9.2604e-07
-2.59668e-07
1.0413e-06
-2.39951e-07
1.14988e-06
-2.28811e-07
1.24872e-06
-2.2697e-07
1.33169e-06
-2.35812e-07
1.38603e-06
-2.55972e-07
1.39208e-06
-2.79533e-07
-2.62515e-07
5.86046e-07
-2.44446e-07
7.10282e-07
-2.17185e-07
8.31508e-07
-1.96562e-07
9.47888e-07
-1.82281e-07
1.05738e-06
-1.74254e-07
1.15725e-06
-1.72465e-07
1.24316e-06
-1.76711e-07
1.30802e-06
-1.85109e-07
1.34345e-06
-1.89438e-07
-1.61974e-07
5.11872e-07
-1.63593e-07
6.36347e-07
-1.45588e-07
7.57828e-07
-1.32064e-07
8.74378e-07
-1.22769e-07
9.84045e-07
-1.17505e-07
1.08465e-06
-1.15976e-07
1.17349e-06
-1.17487e-07
1.24735e-06
-1.19875e-07
1.30402e-06
-1.1696e-07
-9.25877e-08
4.61583e-07
-8.20051e-08
5.8596e-07
-7.30597e-08
7.07326e-07
-6.63673e-08
8.23731e-07
-6.17826e-08
9.33372e-07
-5.91611e-08
1.03456e-06
-5.8268e-08
1.12575e-06
-5.85966e-08
1.20601e-06
-5.8834e-08
1.27631e-06
-5.57389e-08
-4.18907e-08
4.36165e-07
2.8633e-12
5.60418e-07
2.8262e-12
6.8165e-07
2.76667e-12
7.97918e-07
2.70159e-12
9.0752e-07
2.62761e-12
1.00904e-06
2.55534e-12
1.10152e-06
2.48867e-12
1.18509e-06
2.44539e-12
1.26204e-06
2.40869e-12
2.31381e-12
4.36165e-07
8.20108e-08
5.60418e-07
7.30653e-08
6.8165e-07
6.63729e-08
7.97918e-07
6.1788e-08
9.0752e-07
5.91664e-08
1.00904e-06
5.82731e-08
1.10152e-06
5.86015e-08
1.18509e-06
5.88388e-08
1.26204e-06
5.57436e-08
4.18953e-08
4.61583e-07
1.63599e-07
5.85959e-07
1.45594e-07
7.07325e-07
1.3207e-07
8.23731e-07
1.22775e-07
9.33372e-07
1.1751e-07
1.03456e-06
1.15981e-07
1.12575e-06
1.17492e-07
1.20601e-06
1.1988e-07
1.27631e-06
1.16964e-07
9.25922e-08
5.11872e-07
2.44452e-07
6.36347e-07
2.1719e-07
7.57828e-07
1.96567e-07
8.74378e-07
1.82287e-07
9.84045e-07
1.74259e-07
1.08465e-06
1.7247e-07
1.17349e-06
1.76716e-07
1.24735e-06
1.85114e-07
1.30402e-06
1.89442e-07
1.61978e-07
5.86045e-07
3.24472e-07
7.10282e-07
2.87753e-07
8.31507e-07
2.59673e-07
9.47887e-07
2.39957e-07
1.05738e-06
2.28816e-07
1.15725e-06
2.26975e-07
1.24316e-06
2.35817e-07
1.30802e-06
2.55977e-07
1.34345e-06
2.79537e-07
2.62519e-07
6.82924e-07
4.03905e-07
8.06056e-07
3.57668e-07
9.26039e-07
3.21783e-07
1.0413e-06
2.9603e-07
1.14988e-06
2.81083e-07
1.24872e-06
2.78843e-07
1.33169e-06
2.93718e-07
1.38603e-06
3.32792e-07
1.39208e-06
3.94051e-07
4.11499e-07
8.01588e-07
4.83493e-07
9.21962e-07
4.28041e-07
1.03875e-06
3.84202e-07
1.15082e-06
3.51817e-07
1.25661e-06
3.32082e-07
1.35324e-06
3.28263e-07
1.43339e-06
3.49172e-07
1.47691e-06
4.14529e-07
1.44551e-06
5.3957e-07
6.33626e-07
9.42577e-07
5.6468e-07
1.05741e-06
5.00964e-07
1.16766e-06
4.49498e-07
1.2728e-06
4.1021e-07
1.37188e-06
3.84782e-07
1.46299e-06
3.77479e-07
1.53953e-06
4.01731e-07
1.57291e-06
4.99072e-07
1.49185e-06
7.26551e-07
9.68003e-07
1.11083e-06
6.50092e-07
1.21563e-06
5.79905e-07
1.31403e-06
5.21891e-07
1.40616e-06
4.76156e-07
1.49171e-06
4.44809e-07
1.57045e-06
4.32056e-07
1.64193e-06
4.51415e-07
1.67735e-06
5.72523e-07
1.52772e-06
9.71733e-07
1.50536e-06
1.32058e-06
7.44433e-07
1.40773e-06
6.70298e-07
1.48569e-06
6.07788e-07
1.5549e-06
5.57353e-07
1.6156e-06
5.21307e-07
1.66833e-06
5.03441e-07
1.72461e-06
5.06102e-07
1.81645e-06
5.77979e-07
1.75752e-06
1.11254e-06
2.46435e-06
1.56476e-06
1.62213e-06
1.66676e-06
1.69728e-06
1.71152e-06
1.70617e-06
1.68802e-06
1.76351e-06
2.36761e-06
)
;

boundaryField
{
    leftWall
    {
        type            calculated;
        value           nonuniform List<scalar> 0();
    }
    rightWall
    {
        type            calculated;
        value           nonuniform List<scalar> 
20
(
2.42738e-06
8.57188e-07
1.06673e-06
1.24554e-06
1.32021e-06
1.34669e-06
1.35167e-06
1.34715e-06
1.34058e-06
1.33632e-06
1.33632e-06
1.34058e-06
1.34715e-06
1.35167e-06
1.34669e-06
1.32021e-06
1.24554e-06
1.06673e-06
8.5719e-07
2.42738e-06
)
;
    }
    topWall
    {
        type            calculated;
        value           nonuniform List<scalar> 10(8.51416e-07 7.75463e-07 7.11455e-07 6.61179e-07 6.2776e-07 6.15953e-07 6.17617e-07 5.80848e-07 5.67377e-07 2.42738e-06);
    }
    bottomWall
    {
        type            calculated;
        value           nonuniform List<scalar> 10(8.51421e-07 7.75468e-07 7.1146e-07 6.61184e-07 6.27765e-07 6.15956e-07 6.17621e-07 5.8085e-07 5.6738e-07 2.42738e-06);
    }
    frontAndBackPlanes
    {
        type            empty;
    }
    procBoundary0to1
    {
        type            processor;
        value           nonuniform List<scalar> 
20
(
-1.49467e-06
-1.2235e-06
-9.99418e-07
-8.2367e-07
-6.78782e-07
-5.58268e-07
-4.60725e-07
-3.86496e-07
-3.36369e-07
-3.1109e-07
-3.1109e-07
-3.36369e-07
-3.86495e-07
-4.60725e-07
-5.58267e-07
-6.78781e-07
-8.23669e-07
-9.99417e-07
-1.2235e-06
-1.49467e-06
)
;
    }
}


// ************************************************************************* //
