/*--------------------------------*- C++ -*----------------------------------*\
| =========                 |                                                 |
| \\      /  F ield         | OpenFOAM: The Open Source CFD Toolbox           |
|  \\    /   O peration     | Version:  2506                                  |
|   \\  /    A nd           | Website:  www.openfoam.com                      |
|    \\/     M anipulation  |                                                 |
\*---------------------------------------------------------------------------*/
FoamFile
{
    version     2.0;
    format      ascii;
    arch        "LSB;label=32;scalar=64";
    class       volScalarField;
    location    "5.246527766851";
    object      T;
}
// * * * * * * * * * * * * * * * * * * * * * * * * * * * * * * * * * * * * * //

dimensions      [0 0 0 1 0 0 0];

internalField   nonuniform List<scalar> 
200
(
274.281
274.087
273.92
273.776
273.65
273.538
273.438
273.342
273.237
273.078
274.516
274.299
274.111
273.949
273.806
273.682
273.57
273.468
273.366
273.235
274.644
274.417
274.22
274.05
273.901
273.771
273.656
273.552
273.452
273.328
274.738
274.505
274.304
274.128
273.976
273.843
273.727
273.622
273.523
273.396
274.812
274.577
274.372
274.194
274.039
273.905
273.787
273.682
273.582
273.452
274.872
274.634
274.428
274.248
274.092
273.956
273.838
273.732
273.631
273.497
274.918
274.68
274.472
274.292
274.135
273.998
273.879
273.773
273.67
273.532
274.952
274.714
274.506
274.324
274.167
274.029
273.909
273.803
273.699
273.559
274.974
274.736
274.528
274.346
274.188
274.05
273.93
273.823
273.718
273.577
274.985
274.747
274.539
274.357
274.199
274.061
273.94
273.833
273.728
273.585
274.985
274.747
274.539
274.357
274.199
274.061
273.94
273.833
273.728
273.585
274.974
274.736
274.528
274.346
274.188
274.05
273.93
273.823
273.718
273.577
274.952
274.714
274.506
274.324
274.167
274.029
273.909
273.803
273.699
273.559
274.918
274.68
274.472
274.292
274.135
273.998
273.879
273.773
273.67
273.532
274.872
274.634
274.428
274.248
274.092
273.956
273.838
273.732
273.631
273.497
274.812
274.577
274.372
274.194
274.039
273.905
273.787
273.682
273.582
273.452
274.738
274.505
274.304
274.128
273.976
273.843
273.727
273.622
273.523
273.396
274.644
274.417
274.22
274.05
273.901
273.771
273.656
273.552
273.452
273.328
274.516
274.299
274.111
273.949
273.806
273.682
273.57
273.468
273.366
273.235
274.281
274.087
273.92
273.776
273.65
273.538
273.438
273.342
273.237
273.078
)
;

boundaryField
{
    leftWall
    {
        type            fixedValue;
        value           nonuniform List<scalar> 0();
    }
    rightWall
    {
        type            fixedValue;
        value           uniform 273;
    }
    topWall
    {
        type            fixedValue;
        value           uniform 273;
    }
    bottomWall
    {
        type            fixedValue;
        value           uniform 273;
    }
    frontAndBackPlanes
    {
        type            empty;
    }
    procBoundary0to1
    {
        type            processor;
        value           nonuniform List<scalar> 
20
(
274.507
274.769
274.907
275.006
275.084
275.144
275.19
275.224
275.246
275.257
275.257
275.246
275.224
275.19
275.144
275.084
275.006
274.907
274.769
274.507
)
;
    }
}


// ************************************************************************* //
