/*--------------------------------*- C++ -*----------------------------------*\
| =========                 |                                                 |
| \\      /  F ield         | OpenFOAM: The Open Source CFD Toolbox           |
|  \\    /   O peration     | Version:  2506                                  |
|   \\  /    A nd           | Website:  www.openfoam.com                      |
|    \\/     M anipulation  |                                                 |
\*---------------------------------------------------------------------------*/
FoamFile
{
    version     2.0;
    format      ascii;
    arch        "LSB;label=32;scalar=64";
    class       volVectorField;
    location    "5.246527766851";
    object      U;
}
// * * * * * * * * * * * * * * * * * * * * * * * * * * * * * * * * * * * * * //

dimensions      [0 1 -1 0 0 0 0];

internalField   nonuniform List<vector> 
200
(
(1.22469e-05 -1.11555e-05 0)
(1.2755e-05 -1.00863e-05 0)
(1.31636e-05 -9.19336e-06 0)
(1.3465e-05 -8.4911e-06 0)
(1.36493e-05 -8.01984e-06 0)
(1.37401e-05 -7.83612e-06 0)
(1.37109e-05 -7.92497e-06 0)
(1.31142e-05 -8.76667e-06 0)
(1.12836e-05 -1.60237e-05 0)
(4.78888e-05 -4.89139e-05 0)
(1.01858e-05 -5.73044e-06 0)
(1.09201e-05 -5.12474e-06 0)
(1.1579e-05 -4.61864e-06 0)
(1.21656e-05 -4.21406e-06 0)
(1.26849e-05 -3.92949e-06 0)
(1.316e-05 -3.80062e-06 0)
(1.35943e-05 -3.93087e-06 0)
(1.37897e-05 -4.85909e-06 0)
(1.40281e-05 -8.10957e-06 0)
(2.31655e-05 -1.11961e-05 0)
(8.44585e-06 -4.76977e-06 0)
(9.3093e-06 -4.23862e-06 0)
(1.01208e-05 -3.80532e-06 0)
(1.08817e-05 -3.46984e-06 0)
(1.15958e-05 -3.24752e-06 0)
(1.22657e-05 -3.17633e-06 0)
(1.28334e-05 -3.37506e-06 0)
(1.31207e-05 -4.25114e-06 0)
(1.34193e-05 -6.49245e-06 0)
(1.96354e-05 -9.00433e-06 0)
(7.0658e-06 -4.16438e-06 0)
(8.00089e-06 -3.68804e-06 0)
(8.90088e-06 -3.30799e-06 0)
(9.7626e-06 -3.02315e-06 0)
(1.05849e-05 -2.84502e-06 0)
(1.13563e-05 -2.80432e-06 0)
(1.19902e-05 -2.98944e-06 0)
(1.23357e-05 -3.62998e-06 0)
(1.28634e-05 -4.99256e-06 0)
(1.97075e-05 -6.24851e-06 0)
(5.91973e-06 -3.54916e-06 0)
(6.89382e-06 -3.14109e-06 0)
(7.84319e-06 -2.82189e-06 0)
(8.75989e-06 -2.58996e-06 0)
(9.63777e-06 -2.4526e-06 0)
(1.04575e-05 -2.42977e-06 0)
(1.1128e-05 -2.57084e-06 0)
(1.15327e-05 -2.97146e-06 0)
(1.22255e-05 -3.66906e-06 0)
(1.95206e-05 -4.06885e-06 0)
(4.96176e-06 -2.9135e-06 0)
(5.95518e-06 -2.58135e-06 0)
(6.92927e-06 -2.32581e-06 0)
(7.87229e-06 -2.14479e-06 0)
(8.7743e-06 -2.04149e-06 0)
(9.61304e-06 -2.02533e-06 0)
(1.03037e-05 -2.116e-06 0)
(1.07617e-05 -2.33571e-06 0)
(1.15773e-05 -2.63465e-06 0)
(1.90935e-05 -2.60425e-06 0)
(4.18366e-06 -2.27515e-06 0)
(5.18476e-06 -2.01954e-06 0)
(6.16883e-06 -1.82538e-06 0)
(7.12171e-06 -1.69023e-06 0)
(8.0315e-06 -1.61416e-06 0)
(8.87644e-06 -1.59894e-06 0)
(9.58225e-06 -1.64674e-06 0)
(1.00919e-05 -1.74758e-06 0)
(1.10108e-05 -1.83272e-06 0)
(1.86335e-05 -1.63729e-06 0)
(3.59006e-06 -1.63228e-06 0)
(4.59271e-06 -1.45162e-06 0)
(5.57909e-06 -1.31561e-06 0)
(6.53377e-06 -1.22187e-06 0)
(7.44437e-06 -1.16886e-06 0)
(8.29135e-06 -1.15454e-06 0)
(9.0109e-06 -1.17364e-06 0)
(9.56652e-06 -1.20744e-06 0)
(1.05667e-05 -1.19689e-06 0)
(1.82291e-05 -9.80167e-07 0)
(3.18854e-06 -9.82727e-07 0)
(4.19035e-06 -8.75229e-07 0)
(5.17603e-06 -7.94724e-07 0)
(6.12963e-06 -7.39501e-07 0)
(7.03899e-06 -7.07922e-07 0)
(7.88693e-06 -6.97361e-07 0)
(8.61751e-06 -7.02116e-07 0)
(9.20722e-06 -7.07092e-07 0)
(1.02627e-05 -6.74199e-07 0)
(1.79325e-05 -5.16549e-07 0)
(2.98586e-06 -3.28161e-07 0)
(3.98671e-06 -2.92489e-07 0)
(4.97141e-06 -2.65841e-07 0)
(5.92387e-06 -2.47592e-07 0)
(6.83219e-06 -2.37071e-07 0)
(7.68063e-06 -2.33168e-07 0)
(8.41739e-06 -2.33576e-07 0)
(9.02513e-06 -2.32701e-07 0)
(1.01083e-05 -2.17504e-07 0)
(1.77765e-05 -1.60639e-07 0)
(2.98586e-06 3.28207e-07 0)
(3.9867e-06 2.92534e-07 0)
(4.97141e-06 2.65885e-07 0)
(5.92387e-06 2.47635e-07 0)
(6.83219e-06 2.37113e-07 0)
(7.68063e-06 2.33208e-07 0)
(8.41738e-06 2.33616e-07 0)
(9.02512e-06 2.3274e-07 0)
(1.01083e-05 2.17542e-07 0)
(1.77765e-05 1.60676e-07 0)
(3.18854e-06 9.82773e-07 0)
(4.19034e-06 8.75274e-07 0)
(5.17603e-06 7.94768e-07 0)
(6.12963e-06 7.39544e-07 0)
(7.03899e-06 7.07964e-07 0)
(7.88693e-06 6.97401e-07 0)
(8.61751e-06 7.02155e-07 0)
(9.20722e-06 7.0713e-07 0)
(1.02627e-05 6.74237e-07 0)
(1.79325e-05 5.16586e-07 0)
(3.59005e-06 1.63232e-06 0)
(4.5927e-06 1.45167e-06 0)
(5.57908e-06 1.31565e-06 0)
(6.53377e-06 1.22191e-06 0)
(7.44437e-06 1.16891e-06 0)
(8.29134e-06 1.15458e-06 0)
(9.01089e-06 1.17368e-06 0)
(9.56652e-06 1.20748e-06 0)
(1.05667e-05 1.19693e-06 0)
(1.82291e-05 9.80202e-07 0)
(4.18366e-06 2.2752e-06 0)
(5.18475e-06 2.01959e-06 0)
(6.16882e-06 1.82543e-06 0)
(7.1217e-06 1.69028e-06 0)
(8.03149e-06 1.6142e-06 0)
(8.87643e-06 1.59898e-06 0)
(9.58225e-06 1.64678e-06 0)
(1.00919e-05 1.74762e-06 0)
(1.10108e-05 1.83275e-06 0)
(1.86335e-05 1.63732e-06 0)
(4.96176e-06 2.91355e-06 0)
(5.95518e-06 2.58139e-06 0)
(6.92926e-06 2.32586e-06 0)
(7.87228e-06 2.14484e-06 0)
(8.77429e-06 2.04153e-06 0)
(9.61304e-06 2.02537e-06 0)
(1.03037e-05 2.11604e-06 0)
(1.07617e-05 2.33574e-06 0)
(1.15773e-05 2.63468e-06 0)
(1.90935e-05 2.60428e-06 0)
(5.91973e-06 3.54921e-06 0)
(6.89381e-06 3.14114e-06 0)
(7.84318e-06 2.82193e-06 0)
(8.75988e-06 2.59e-06 0)
(9.63776e-06 2.45264e-06 0)
(1.04575e-05 2.42981e-06 0)
(1.1128e-05 2.57087e-06 0)
(1.15327e-05 2.9715e-06 0)
(1.22255e-05 3.66909e-06 0)
(1.95206e-05 4.06888e-06 0)
(7.0658e-06 4.16442e-06 0)
(8.00089e-06 3.68809e-06 0)
(8.90088e-06 3.30803e-06 0)
(9.76259e-06 3.0232e-06 0)
(1.05849e-05 2.84506e-06 0)
(1.13563e-05 2.80436e-06 0)
(1.19902e-05 2.98947e-06 0)
(1.23357e-05 3.63002e-06 0)
(1.28634e-05 4.99259e-06 0)
(1.97075e-05 6.24853e-06 0)
(8.44584e-06 4.76981e-06 0)
(9.3093e-06 4.23867e-06 0)
(1.01208e-05 3.80536e-06 0)
(1.08817e-05 3.46988e-06 0)
(1.15958e-05 3.24756e-06 0)
(1.22657e-05 3.17636e-06 0)
(1.28334e-05 3.3751e-06 0)
(1.31207e-05 4.25117e-06 0)
(1.34193e-05 6.49247e-06 0)
(1.96354e-05 9.00435e-06 0)
(1.01858e-05 5.73048e-06 0)
(1.09201e-05 5.12479e-06 0)
(1.1579e-05 4.61869e-06 0)
(1.21656e-05 4.2141e-06 0)
(1.26849e-05 3.92953e-06 0)
(1.316e-05 3.80066e-06 0)
(1.35943e-05 3.93091e-06 0)
(1.37897e-05 4.85912e-06 0)
(1.40281e-05 8.10959e-06 0)
(2.31655e-05 1.11961e-05 0)
(1.22469e-05 1.11555e-05 0)
(1.2755e-05 1.00864e-05 0)
(1.31636e-05 9.19342e-06 0)
(1.3465e-05 8.49116e-06 0)
(1.36493e-05 8.0199e-06 0)
(1.37401e-05 7.83617e-06 0)
(1.37109e-05 7.92502e-06 0)
(1.31142e-05 8.76671e-06 0)
(1.12836e-05 1.60237e-05 0)
(4.78888e-05 4.89139e-05 0)
)
;

boundaryField
{
    leftWall
    {
        type            noSlip;
    }
    rightWall
    {
        type            noSlip;
    }
    topWall
    {
        type            noSlip;
    }
    bottomWall
    {
        type            noSlip;
    }
    frontAndBackPlanes
    {
        type            empty;
    }
    procBoundary0to1
    {
        type            processor;
        value           nonuniform List<vector> 
20
(
(1.16327e-05 -1.2398e-05 0)
(9.36811e-06 -6.4452e-06 0)
(7.5286e-06 -5.41045e-06 0)
(6.10067e-06 -4.74796e-06 0)
(4.93132e-06 -4.05499e-06 0)
(3.96308e-06 -3.32912e-06 0)
(3.18198e-06 -2.5974e-06 0)
(2.58898e-06 -1.86131e-06 0)
(2.18918e-06 -1.11952e-06 0)
(1.98774e-06 -3.73638e-07 0)
(1.98774e-06 3.73684e-07 0)
(2.18918e-06 1.11957e-06 0)
(2.58898e-06 1.86136e-06 0)
(3.18198e-06 2.59745e-06 0)
(3.96307e-06 3.32916e-06 0)
(4.93131e-06 4.05504e-06 0)
(6.10067e-06 4.74801e-06 0)
(7.5286e-06 5.4105e-06 0)
(9.36811e-06 6.44524e-06 0)
(1.16327e-05 1.23981e-05 0)
)
;
    }
}


// ************************************************************************* //
