/*--------------------------------*- C++ -*----------------------------------*\
| =========                 |                                                 |
| \\      /  F ield         | OpenFOAM: The Open Source CFD Toolbox           |
|  \\    /   O peration     | Version:  2506                                  |
|   \\  /    A nd           | Website:  www.openfoam.com                      |
|    \\/     M anipulation  |                                                 |
\*---------------------------------------------------------------------------*/
FoamFile
{
    version     2.0;
    format      ascii;
    arch        "LSB;label=32;scalar=64";
    class       surfaceScalarField;
    location    "4.32210647238";
    object      phi;
}
// * * * * * * * * * * * * * * * * * * * * * * * * * * * * * * * * * * * * * //

dimensions      [1 0 -1 0 0 0 0];

oriented        oriented;

internalField   nonuniform List<scalar> 
370
(
-5.58105e-06
-6.41677e-06
-2.09299e-06
-3.03541e-06
-5.52961e-07
-2.27324e-06
3.19997e-07
-2.05365e-06
8.38703e-07
-1.80271e-06
1.15952e-06
-1.58296e-06
1.37261e-06
-1.39649e-06
1.5243e-06
-1.23427e-06
1.63798e-06
-1.09237e-06
-9.68458e-07
-1.07827e-06
-3.99558e-06
-7.08139e-07
-3.00544e-06
-1.7597e-07
-2.43306e-06
2.10218e-07
-2.0885e-06
5.18827e-07
-1.77907e-06
7.6569e-07
-1.51615e-06
9.64674e-07
-1.30043e-06
1.12937e-06
-1.12274e-06
1.2691e-06
-9.74849e-07
-8.50776e-07
-6.65978e-08
-3.25565e-06
-7.85038e-08
-2.60744e-06
4.27332e-08
-2.19109e-06
1.8597e-07
-1.88591e-06
3.48511e-07
-1.61211e-06
5.16634e-07
-1.37113e-06
6.80191e-07
-1.16754e-06
8.35099e-07
-9.98314e-07
9.80107e-07
-8.57987e-07
-7.41483e-07
-1.05668e-07
-2.78179e-06
-6.68983e-08
-2.27245e-06
1.6888e-09
-1.90573e-06
8.72374e-08
-1.63229e-06
1.97511e-07
-1.39732e-06
3.27841e-07
-1.19081e-06
4.69345e-07
-1.01341e-06
6.14907e-07
-8.63848e-07
7.59839e-07
-7.38991e-07
-6.35351e-07
-1.7152e-07
-2.33017e-06
-1.59676e-07
-1.92012e-06
-1.11734e-07
-1.60766e-06
-4.14794e-08
-1.36955e-06
5.22631e-08
-1.17048e-06
1.67298e-07
-9.98128e-07
2.97802e-07
-8.49775e-07
4.37618e-07
-7.23826e-07
5.81671e-07
-6.18107e-07
-5.30222e-07
-2.37606e-07
-1.87504e-06
-2.51206e-07
-1.54949e-06
-2.22236e-07
-1.29695e-06
-1.62581e-07
-1.10142e-06
-7.69136e-08
-9.39556e-07
3.09112e-08
-8.01014e-07
1.55783e-07
-6.82131e-07
2.9228e-07
-5.81016e-07
4.35523e-07
-4.95927e-07
-4.25144e-07
-3.03017e-07
-1.41317e-06
-3.31245e-07
-1.16939e-06
-3.151e-07
-9.78215e-07
-2.63613e-07
-8.29215e-07
-1.83461e-07
-7.06369e-07
-7.99539e-08
-6.01941e-07
4.16108e-08
-5.12646e-07
1.76025e-07
-4.36729e-07
3.18538e-07
-3.72808e-07
-3.19642e-07
-3.56531e-07
-9.45186e-07
-3.94594e-07
-7.83002e-07
-3.86703e-07
-6.54655e-07
-3.40937e-07
-5.54299e-07
-2.64685e-07
-4.71727e-07
-1.64045e-07
-4.01819e-07
-4.46062e-08
-3.42208e-07
8.84112e-08
-2.91583e-07
2.30281e-07
-2.4897e-07
-2.13548e-07
-3.93283e-07
-4.73423e-07
-4.3768e-07
-3.92494e-07
-4.35001e-07
-3.28074e-07
-3.92973e-07
-2.77605e-07
-3.19309e-07
-2.36117e-07
-2.20523e-07
-2.01068e-07
-1.0243e-07
-1.71232e-07
2.96777e-08
-1.45918e-07
1.71052e-07
-1.2462e-07
-1.06926e-07
-4.11896e-07
2.24611e-12
-4.59344e-07
2.33818e-12
-4.59228e-07
2.41686e-12
-4.19079e-07
2.50479e-12
-3.4673e-07
2.59187e-12
-2.48878e-07
2.68165e-12
-1.31456e-07
2.76543e-12
1.92693e-10
2.83716e-12
1.41294e-07
2.89425e-12
2.91463e-12
-4.11896e-07
4.73428e-07
-4.59344e-07
3.92498e-07
-4.59228e-07
3.28078e-07
-4.1908e-07
2.7761e-07
-3.4673e-07
2.36122e-07
-2.48878e-07
2.01073e-07
-1.31456e-07
1.71238e-07
1.9258e-10
1.45924e-07
1.41294e-07
1.24625e-07
1.06932e-07
-3.93283e-07
9.45191e-07
-4.3768e-07
7.83006e-07
-4.35001e-07
6.54659e-07
-3.92973e-07
5.54304e-07
-3.19309e-07
4.71732e-07
-2.20523e-07
4.01824e-07
-1.02431e-07
3.42213e-07
2.96774e-08
2.91589e-07
1.71052e-07
2.48975e-07
2.13554e-07
-3.56532e-07
1.41317e-06
-3.94594e-07
1.16939e-06
-3.86703e-07
9.7822e-07
-3.40937e-07
8.2922e-07
-2.64685e-07
7.06375e-07
-1.64045e-07
6.01946e-07
-4.46066e-08
5.12651e-07
8.84106e-08
4.36735e-07
2.3028e-07
3.72813e-07
3.19648e-07
-3.03017e-07
1.87504e-06
-3.31245e-07
1.54949e-06
-3.151e-07
1.29695e-06
-2.63614e-07
1.10142e-06
-1.83462e-07
9.39561e-07
-7.99544e-08
8.01019e-07
4.16101e-08
6.82136e-07
1.76025e-07
5.81022e-07
3.18537e-07
4.95933e-07
4.2515e-07
-2.37606e-07
2.33017e-06
-2.51206e-07
1.92012e-06
-2.22237e-07
1.60766e-06
-1.62581e-07
1.36956e-06
-7.69142e-08
1.17049e-06
3.09105e-08
9.98133e-07
1.55783e-07
8.4978e-07
2.9228e-07
7.23832e-07
4.35522e-07
6.18112e-07
5.30228e-07
-1.7152e-07
2.78179e-06
-1.59676e-07
2.27245e-06
-1.11735e-07
1.90573e-06
-4.14798e-08
1.6323e-06
5.22625e-08
1.39732e-06
1.67297e-07
1.19081e-06
2.97802e-07
1.01341e-06
4.37617e-07
8.63854e-07
5.8167e-07
7.38997e-07
6.35357e-07
-1.05669e-07
3.25566e-06
-6.68986e-08
2.60745e-06
1.68836e-09
2.19109e-06
8.72368e-08
1.88592e-06
1.97511e-07
1.61212e-06
3.2784e-07
1.37113e-06
4.69344e-07
1.16754e-06
6.14906e-07
9.9832e-07
7.59838e-07
8.57992e-07
7.41488e-07
-6.65985e-08
3.99558e-06
-7.85044e-08
3.00544e-06
4.27325e-08
2.43307e-06
1.85969e-07
2.0885e-06
3.4851e-07
1.77907e-06
5.16633e-07
1.51616e-06
6.8019e-07
1.30044e-06
8.35098e-07
1.12274e-06
9.80106e-07
9.74855e-07
8.50782e-07
-1.07827e-06
6.41677e-06
-7.08141e-07
3.03542e-06
-1.75971e-07
2.27325e-06
2.10217e-07
2.05365e-06
5.18826e-07
1.80271e-06
7.65689e-07
1.58296e-06
9.64674e-07
1.3965e-06
1.12937e-06
1.23427e-06
1.26909e-06
1.09238e-06
9.68463e-07
-5.58106e-06
-2.09299e-06
-5.52963e-07
3.19995e-07
8.38702e-07
1.15952e-06
1.37261e-06
1.5243e-06
1.63798e-06
)
;

boundaryField
{
    leftWall
    {
        type            calculated;
        value           nonuniform List<scalar> 
20
(
6.14737e-06
-8.75665e-07
-2.31635e-07
5.81056e-08
1.36622e-07
1.9298e-07
2.4761e-07
2.92467e-07
3.23955e-07
3.40225e-07
3.40225e-07
3.23955e-07
2.92467e-07
2.4761e-07
1.9298e-07
1.36622e-07
5.81065e-08
-2.31634e-07
-8.75663e-07
6.14737e-06
)
;
    }
    rightWall
    {
        type            calculated;
        value           nonuniform List<scalar> 0();
    }
    topWall
    {
        type            calculated;
        value           nonuniform List<scalar> 10(6.32335e-06 -4.98663e-08 1.10426e-06 1.52709e-06 1.60845e-06 1.56561e-06 1.46616e-06 1.34469e-06 1.22024e-06 1.10191e-06);
    }
    bottomWall
    {
        type            calculated;
        value           nonuniform List<scalar> 10(6.32335e-06 -4.98632e-08 1.10426e-06 1.5271e-06 1.60845e-06 1.56562e-06 1.46616e-06 1.3447e-06 1.22025e-06 1.10191e-06);
    }
    frontAndBackPlanes
    {
        type            empty;
    }
    procBoundary1to0
    {
        type            processor;
        value           nonuniform List<scalar> 
20
(
1.72573e-06
1.38966e-06
1.11502e-06
9.01205e-07
7.26149e-07
5.81478e-07
4.65049e-07
3.76858e-07
3.17506e-07
2.87637e-07
2.87636e-07
3.17506e-07
3.76857e-07
4.65048e-07
5.81477e-07
7.26148e-07
9.01205e-07
1.11502e-06
1.38965e-06
1.72573e-06
)
;
    }
}


// ************************************************************************* //
