/*--------------------------------*- C++ -*----------------------------------*\
| =========                 |                                                 |
| \\      /  F ield         | OpenFOAM: The Open Source CFD Toolbox           |
|  \\    /   O peration     | Version:  2506                                  |
|   \\  /    A nd           | Website:  www.openfoam.com                      |
|    \\/     M anipulation  |                                                 |
\*---------------------------------------------------------------------------*/
FoamFile
{
    version     2.0;
    format      ascii;
    arch        "LSB;label=32;scalar=64";
    class       volScalarField;
    location    "4.32210647238";
    object      rho;
}
// * * * * * * * * * * * * * * * * * * * * * * * * * * * * * * * * * * * * * //

dimensions      [1 -3 0 0 0 0 0];

internalField   nonuniform List<scalar> 
200
(
997.182
999.515
1000.1
1000.39
1000.57
1000.71
1000.82
1000.91
1000.98
1001.05
997.941
999.425
999.946
1000.25
1000.46
1000.61
1000.73
1000.83
1000.92
1000.98
998.219
999.463
999.924
1000.21
1000.41
1000.57
1000.69
1000.79
1000.88
1000.95
998.331
999.498
999.926
1000.19
1000.39
1000.54
1000.67
1000.77
1000.85
1000.93
998.388
999.522
999.932
1000.19
1000.37
1000.52
1000.65
1000.75
1000.84
1000.91
998.422
999.539
999.937
1000.18
1000.37
1000.51
1000.63
1000.73
1000.82
1000.9
998.443
999.55
999.942
1000.18
1000.36
1000.5
1000.62
1000.72
1000.81
1000.88
998.457
999.557
999.944
1000.18
1000.36
1000.5
1000.62
1000.72
1000.8
1000.88
998.465
999.561
999.946
1000.18
1000.36
1000.5
1000.61
1000.71
1000.8
1000.87
998.469
999.563
999.947
1000.18
1000.35
1000.49
1000.61
1000.71
1000.79
1000.87
998.469
999.563
999.947
1000.18
1000.35
1000.49
1000.61
1000.71
1000.79
1000.87
998.465
999.561
999.946
1000.18
1000.36
1000.5
1000.61
1000.71
1000.8
1000.87
998.457
999.557
999.944
1000.18
1000.36
1000.5
1000.62
1000.72
1000.8
1000.88
998.443
999.55
999.942
1000.18
1000.36
1000.5
1000.62
1000.72
1000.81
1000.88
998.422
999.539
999.937
1000.18
1000.37
1000.51
1000.63
1000.73
1000.82
1000.9
998.388
999.522
999.932
1000.19
1000.37
1000.52
1000.65
1000.75
1000.84
1000.91
998.331
999.498
999.926
1000.19
1000.39
1000.54
1000.67
1000.77
1000.85
1000.93
998.219
999.463
999.924
1000.21
1000.41
1000.57
1000.69
1000.79
1000.88
1000.95
997.941
999.425
999.946
1000.25
1000.46
1000.61
1000.73
1000.83
1000.92
1000.98
997.182
999.515
1000.1
1000.39
1000.57
1000.71
1000.82
1000.91
1000.98
1001.05
)
;

boundaryField
{
    leftWall
    {
        type            calculated;
        value           uniform 973.493;
    }
    rightWall
    {
        type            calculated;
        value           nonuniform List<scalar> 0();
    }
    topWall
    {
        type            calculated;
        value           uniform 1001.36;
    }
    bottomWall
    {
        type            calculated;
        value           uniform 1001.36;
    }
    frontAndBackPlanes
    {
        type            empty;
    }
    procBoundary1to0
    {
        type            processor;
        value           nonuniform List<scalar> 
20
(
1001.1
1001.04
1001.01
1000.99
1000.97
1000.96
1000.95
1000.94
1000.93
1000.93
1000.93
1000.93
1000.94
1000.95
1000.96
1000.97
1000.99
1001.01
1001.04
1001.1
)
;
    }
}


// ************************************************************************* //
