/*--------------------------------*- C++ -*----------------------------------*\
| =========                 |                                                 |
| \\      /  F ield         | OpenFOAM: The Open Source CFD Toolbox           |
|  \\    /   O peration     | Version:  2506                                  |
|   \\  /    A nd           | Website:  www.openfoam.com                      |
|    \\/     M anipulation  |                                                 |
\*---------------------------------------------------------------------------*/
FoamFile
{
    version     2.0;
    format      ascii;
    arch        "LSB;label=32;scalar=64";
    class       volScalarField;
    location    "4.32210647238";
    object      T;
}
// * * * * * * * * * * * * * * * * * * * * * * * * * * * * * * * * * * * * * //

dimensions      [0 0 0 1 0 0 0];

internalField   nonuniform List<scalar> 
200
(
289.672
280.438
278.095
276.947
276.187
275.622
275.179
274.82
274.524
274.277
286.688
280.798
278.713
277.495
276.657
276.029
275.535
275.134
274.802
274.523
285.593
280.647
278.799
277.659
276.839
276.209
275.706
275.292
274.947
274.655
285.149
280.508
278.793
277.721
276.934
276.317
275.816
275.4
275.049
274.752
284.923
280.41
278.77
277.747
276.989
276.387
275.893
275.479
275.128
274.827
284.789
280.344
278.748
277.758
277.022
276.435
275.949
275.538
275.188
274.887
284.704
280.3
278.731
277.763
277.044
276.467
275.988
275.582
275.233
274.932
284.651
280.272
278.719
277.765
277.057
276.489
276.016
275.612
275.265
274.965
284.619
280.256
278.712
277.766
277.065
276.503
276.033
275.632
275.286
274.987
284.604
280.248
278.709
277.767
277.069
276.509
276.041
275.642
275.297
274.997
284.604
280.248
278.709
277.767
277.069
276.509
276.041
275.642
275.297
274.997
284.619
280.256
278.712
277.766
277.065
276.503
276.033
275.632
275.286
274.987
284.651
280.272
278.719
277.765
277.057
276.489
276.016
275.612
275.265
274.965
284.704
280.3
278.731
277.763
277.044
276.467
275.988
275.582
275.233
274.932
284.789
280.344
278.748
277.758
277.022
276.435
275.949
275.538
275.188
274.887
284.923
280.41
278.77
277.747
276.989
276.387
275.893
275.479
275.128
274.827
285.149
280.508
278.793
277.721
276.934
276.317
275.816
275.4
275.049
274.752
285.593
280.647
278.799
277.659
276.839
276.209
275.706
275.292
274.947
274.655
286.688
280.798
278.713
277.495
276.657
276.029
275.535
275.134
274.802
274.523
289.672
280.438
278.095
276.947
276.187
275.622
275.179
274.82
274.524
274.277
)
;

boundaryField
{
    leftWall
    {
        type            fixedValue;
        value           uniform 373;
    }
    rightWall
    {
        type            fixedValue;
        value           nonuniform List<scalar> 0();
    }
    topWall
    {
        type            fixedValue;
        value           uniform 273;
    }
    bottomWall
    {
        type            fixedValue;
        value           uniform 273;
    }
    frontAndBackPlanes
    {
        type            empty;
    }
    procBoundary1to0
    {
        type            processor;
        value           nonuniform List<scalar> 
20
(
274.069
274.287
274.408
274.498
274.57
274.627
274.672
274.705
274.726
274.737
274.737
274.726
274.705
274.672
274.627
274.57
274.498
274.408
274.287
274.069
)
;
    }
}


// ************************************************************************* //
