/*--------------------------------*- C++ -*----------------------------------*\
| =========                 |                                                 |
| \\      /  F ield         | OpenFOAM: The Open Source CFD Toolbox           |
|  \\    /   O peration     | Version:  2506                                  |
|   \\  /    A nd           | Website:  www.openfoam.com                      |
|    \\/     M anipulation  |                                                 |
\*---------------------------------------------------------------------------*/
FoamFile
{
    version     2.0;
    format      ascii;
    arch        "LSB;label=32;scalar=64";
    class       volVectorField;
    location    "4.32210647238";
    object      U;
}
// * * * * * * * * * * * * * * * * * * * * * * * * * * * * * * * * * * * * * //

dimensions      [0 1 -1 0 0 0 0];

internalField   nonuniform List<vector> 
200
(
(-0.000145011 -0.000155118 0)
(-7.53206e-06 -3.6354e-05 0)
(-9.23066e-06 -2.8118e-05 0)
(-5.44222e-07 -2.73848e-05 0)
(4.97784e-06 -2.52527e-05 0)
(8.17999e-06 -2.28531e-05 0)
(1.02228e-05 -2.05208e-05 0)
(1.16421e-05 -1.83342e-05 0)
(1.26828e-05 -1.6344e-05 0)
(1.34765e-05 -1.45693e-05 0)
(-1.40244e-05 -1.72153e-05 0)
(-5.08106e-06 -2.22818e-05 0)
(-3.37673e-06 -1.96836e-05 0)
(1.92735e-07 -1.758e-05 0)
(3.06273e-06 -1.51472e-05 0)
(5.24745e-06 -1.29974e-05 0)
(6.98865e-06 -1.12266e-05 0)
(8.42079e-06 -9.75772e-06 0)
(9.62433e-06 -8.52268e-06 0)
(1.06561e-05 -7.47518e-06 0)
(-8.25753e-07 -2.75702e-05 0)
(-6.71091e-07 -2.22208e-05 0)
(-3.18412e-07 -1.8411e-05 0)
(8.77297e-07 -1.57651e-05 0)
(2.15163e-06 -1.34425e-05 0)
(3.47415e-06 -1.14345e-05 0)
(4.79974e-06 -9.75565e-06 0)
(6.07455e-06 -8.36622e-06 0)
(7.27358e-06 -7.21457e-06 0)
(8.39163e-06 -6.25608e-06 0)
(-2.09412e-06 -2.46287e-05 0)
(-8.60026e-07 -1.97849e-05 0)
(-3.04861e-07 -1.64448e-05 0)
(3.30337e-07 -1.4052e-05 0)
(1.10905e-06 -1.20109e-05 0)
(2.07751e-06 -1.02241e-05 0)
(3.1752e-06 -8.69865e-06 0)
(4.33196e-06 -7.41982e-06 0)
(5.49917e-06 -6.35581e-06 0)
(6.64713e-06 -5.47325e-06 0)
(-3.08767e-06 -2.05701e-05 0)
(-1.58077e-06 -1.6846e-05 0)
(-1.08195e-06 -1.40997e-05 0)
(-6.32016e-07 -1.20357e-05 0)
(3.06906e-09 -1.02934e-05 0)
(8.44076e-07 -8.77459e-06 0)
(1.83711e-06 -7.46729e-06 0)
(2.92768e-06 -6.36022e-06 0)
(4.07007e-06 -5.43306e-06 0)
(5.22897e-06 -4.66294e-06 0)
(-3.93267e-06 -1.68368e-05 0)
(-2.26264e-06 -1.38968e-05 0)
(-1.89226e-06 -1.16381e-05 0)
(-1.56224e-06 -9.89814e-06 0)
(-1.00179e-06 -8.44991e-06 0)
(-2.21279e-07 -7.204e-06 0)
(7.1979e-07 -6.13326e-06 0)
(1.77409e-06 -5.22304e-06 0)
(2.9003e-06 -4.45776e-06 0)
(4.06274e-06 -3.8213e-06 0)
(-4.76544e-06 -1.31766e-05 0)
(-2.87641e-06 -1.08941e-05 0)
(-2.58769e-06 -9.11289e-06 0)
(-2.34156e-06 -7.72843e-06 0)
(-1.83498e-06 -6.58575e-06 0)
(-1.09272e-06 -5.61231e-06 0)
(-1.82143e-07 -4.77899e-06 0)
(8.50374e-07 -4.07041e-06 0)
(1.96542e-06 -3.47388e-06 0)
(3.12759e-06 -2.97768e-06 0)
(-5.45153e-06 -9.45304e-06 0)
(-3.36967e-06 -7.82353e-06 0)
(-3.12837e-06 -6.53977e-06 0)
(-2.9393e-06 -5.5378e-06 0)
(-2.47142e-06 -4.7134e-06 0)
(-1.75537e-06 -4.01488e-06 0)
(-8.64411e-07 -3.41886e-06 0)
(1.5404e-07 -2.91256e-06 0)
(1.26102e-06 -2.48636e-06 0)
(2.42113e-06 -2.13204e-06 0)
(-5.92579e-06 -5.68512e-06 0)
(-3.7069e-06 -4.70958e-06 0)
(-3.49403e-06 -3.93557e-06 0)
(-3.34173e-06 -3.3299e-06 0)
(-2.89961e-06 -2.83214e-06 0)
(-2.20075e-06 -2.41156e-06 0)
(-1.32224e-06 -2.0535e-06 0)
(-3.12701e-07 -1.74968e-06 0)
(7.88746e-07 -1.49406e-06 0)
(1.94655e-06 -1.2817e-06 0)
(-6.16729e-06 -1.897e-06 0)
(-3.87682e-06 -1.57235e-06 0)
(-3.67759e-06 -1.31377e-06 0)
(-3.54357e-06 -1.11118e-06 0)
(-3.11452e-06 -9.4474e-07 0)
(-2.42437e-06 -8.04285e-07 0)
(-1.55207e-06 -6.84843e-07 0)
(-5.46964e-07 -5.83567e-07 0)
(5.51612e-07 -4.98393e-07 0)
(1.70796e-06 -4.27665e-07 0)
(-6.16729e-06 1.89703e-06 0)
(-3.87682e-06 1.57239e-06 0)
(-3.67759e-06 1.31381e-06 0)
(-3.54357e-06 1.11122e-06 0)
(-3.11452e-06 9.44782e-07 0)
(-2.42437e-06 8.04328e-07 0)
(-1.55207e-06 6.84888e-07 0)
(-5.46965e-07 5.83612e-07 0)
(5.51611e-07 4.98439e-07 0)
(1.70795e-06 4.27711e-07 0)
(-5.92579e-06 5.68515e-06 0)
(-3.7069e-06 4.70961e-06 0)
(-3.49403e-06 3.93561e-06 0)
(-3.34173e-06 3.32994e-06 0)
(-2.89961e-06 2.83218e-06 0)
(-2.20076e-06 2.4116e-06 0)
(-1.32225e-06 2.05354e-06 0)
(-3.12704e-07 1.74972e-06 0)
(7.88743e-07 1.49411e-06 0)
(1.94654e-06 1.28175e-06 0)
(-5.45153e-06 9.45307e-06 0)
(-3.36967e-06 7.82357e-06 0)
(-3.12837e-06 6.53981e-06 0)
(-2.9393e-06 5.53784e-06 0)
(-2.47142e-06 4.71344e-06 0)
(-1.75537e-06 4.01492e-06 0)
(-8.64415e-07 3.4189e-06 0)
(1.54036e-07 2.91261e-06 0)
(1.26101e-06 2.48641e-06 0)
(2.42112e-06 2.13209e-06 0)
(-4.76545e-06 1.31766e-05 0)
(-2.87641e-06 1.08942e-05 0)
(-2.5877e-06 9.11292e-06 0)
(-2.34156e-06 7.72847e-06 0)
(-1.83498e-06 6.58579e-06 0)
(-1.09273e-06 5.61235e-06 0)
(-1.82148e-07 4.77904e-06 0)
(8.50368e-07 4.07046e-06 0)
(1.96542e-06 3.47392e-06 0)
(3.12759e-06 2.97772e-06 0)
(-3.93268e-06 1.68368e-05 0)
(-2.26264e-06 1.38968e-05 0)
(-1.89227e-06 1.16382e-05 0)
(-1.56224e-06 9.89818e-06 0)
(-1.0018e-06 8.44995e-06 0)
(-2.21283e-07 7.20404e-06 0)
(7.19784e-07 6.13331e-06 0)
(1.77409e-06 5.22309e-06 0)
(2.90029e-06 4.45781e-06 0)
(4.06273e-06 3.82134e-06 0)
(-3.08767e-06 2.05702e-05 0)
(-1.58077e-06 1.68461e-05 0)
(-1.08195e-06 1.40997e-05 0)
(-6.3202e-07 1.20358e-05 0)
(3.06487e-09 1.02935e-05 0)
(8.44071e-07 8.77463e-06 0)
(1.8371e-06 7.46733e-06 0)
(2.92767e-06 6.36026e-06 0)
(4.07006e-06 5.43311e-06 0)
(5.22896e-06 4.66299e-06 0)
(-2.09412e-06 2.46287e-05 0)
(-8.60029e-07 1.9785e-05 0)
(-3.04864e-07 1.64448e-05 0)
(3.30333e-07 1.4052e-05 0)
(1.10905e-06 1.20109e-05 0)
(2.07751e-06 1.02241e-05 0)
(3.17519e-06 8.69869e-06 0)
(4.33195e-06 7.41987e-06 0)
(5.49916e-06 6.35585e-06 0)
(6.64713e-06 5.4733e-06 0)
(-8.25763e-07 2.75702e-05 0)
(-6.71097e-07 2.22208e-05 0)
(-3.18418e-07 1.8411e-05 0)
(8.77291e-07 1.57651e-05 0)
(2.15162e-06 1.34426e-05 0)
(3.47414e-06 1.14346e-05 0)
(4.79973e-06 9.75569e-06 0)
(6.07455e-06 8.36626e-06 0)
(7.27357e-06 7.21462e-06 0)
(8.39163e-06 6.25612e-06 0)
(-1.40244e-05 1.72153e-05 0)
(-5.08108e-06 2.22819e-05 0)
(-3.37674e-06 1.96836e-05 0)
(1.92726e-07 1.75801e-05 0)
(3.06272e-06 1.51473e-05 0)
(5.24744e-06 1.29974e-05 0)
(6.98864e-06 1.12267e-05 0)
(8.42079e-06 9.75776e-06 0)
(9.62432e-06 8.52273e-06 0)
(1.06561e-05 7.47522e-06 0)
(-0.000145011 0.000155118 0)
(-7.53208e-06 3.63541e-05 0)
(-9.23068e-06 2.8118e-05 0)
(-5.44233e-07 2.73849e-05 0)
(4.97783e-06 2.52528e-05 0)
(8.17998e-06 2.28531e-05 0)
(1.02228e-05 2.05208e-05 0)
(1.16421e-05 1.83343e-05 0)
(1.26828e-05 1.6344e-05 0)
(1.34765e-05 1.45693e-05 0)
)
;

boundaryField
{
    leftWall
    {
        type            noSlip;
    }
    rightWall
    {
        type            noSlip;
    }
    topWall
    {
        type            noSlip;
    }
    bottomWall
    {
        type            noSlip;
    }
    frontAndBackPlanes
    {
        type            empty;
    }
    procBoundary1to0
    {
        type            processor;
        value           nonuniform List<vector> 
20
(
(1.40928e-05 -1.30117e-05 0)
(1.1552e-05 -6.58338e-06 0)
(9.42957e-06 -5.45642e-06 0)
(7.7579e-06 -4.74368e-06 0)
(6.37862e-06 -4.02901e-06 0)
(5.23263e-06 -3.29888e-06 0)
(4.30678e-06 -2.5714e-06 0)
(3.60353e-06 -1.84254e-06 0)
(3.12937e-06 -1.10847e-06 0)
(2.89049e-06 -3.70018e-07 0)
(2.89049e-06 3.70064e-07 0)
(3.12937e-06 1.10852e-06 0)
(3.60353e-06 1.84259e-06 0)
(4.30677e-06 2.57145e-06 0)
(5.23263e-06 3.29892e-06 0)
(6.37861e-06 4.02906e-06 0)
(7.7579e-06 4.74372e-06 0)
(9.42956e-06 5.45646e-06 0)
(1.1552e-05 6.58342e-06 0)
(1.40928e-05 1.30118e-05 0)
)
;
    }
}


// ************************************************************************* //
