/*--------------------------------*- C++ -*----------------------------------*\
| =========                 |                                                 |
| \\      /  F ield         | OpenFOAM: The Open Source CFD Toolbox           |
|  \\    /   O peration     | Version:  2506                                  |
|   \\  /    A nd           | Website:  www.openfoam.com                      |
|    \\/     M anipulation  |                                                 |
\*---------------------------------------------------------------------------*/
FoamFile
{
    version     2.0;
    format      ascii;
    arch        "LSB;label=32;scalar=64";
    class       volScalarField;
    location    "5.246527766851";
    object      alphat;
}
// * * * * * * * * * * * * * * * * * * * * * * * * * * * * * * * * * * * * * //

dimensions      [1 -1 -1 0 0 0 0];

internalField   nonuniform List<scalar> 
400
(
0.0417966
0.0758143
0.0904548
0.0989865
0.104724
0.108795
0.111708
0.11373
0.115012
0.115637
0.115643
0.115028
0.113757
0.111747
0.108847
0.104789
0.0990664
0.0905521
0.075931
0.0420084
0.0757098
0.691101
0.994241
1.15671
1.25959
1.32987
1.37897
1.41253
1.43361
1.44382
1.44388
1.4338
1.41285
1.37941
1.33044
1.26029
1.15754
0.995194
0.692053
0.0759344
0.090304
0.993769
1.63921
2.03002
2.28429
2.45787
2.57821
2.65986
2.71081
2.7354
2.73553
2.71121
2.66052
2.57914
2.45906
2.28573
2.03166
1.64095
0.995218
0.0905573
0.098805
1.1559
2.0295
2.60741
3.00033
3.27392
3.46512
3.59516
3.67634
3.71549
3.71568
3.67691
3.59611
3.46644
3.27559
3.00231
2.60961
2.0317
1.15759
0.0990731
0.10452
1.25853
2.28335
2.99982
3.50448
3.86332
4.11706
4.2907
4.39944
4.45194
4.45218
4.40014
4.29187
4.11866
3.86533
3.50683
3.00237
2.28582
1.26036
0.104797
0.108574
1.32862
2.45656
3.27295
3.86282
4.28961
4.59479
4.80508
4.93727
5.00122
5.00149
4.93807
4.8064
4.59661
4.29186
3.86542
3.27572
2.4592
1.33054
0.108857
0.111472
1.37756
2.5766
3.46374
4.1161
4.59431
4.93941
5.17864
5.32959
5.40276
5.40305
5.33046
5.18008
4.94137
4.59673
4.11886
3.46666
2.57935
1.37953
0.111759
0.113483
1.411
2.65799
3.59344
4.28934
4.80416
5.17819
5.4387
5.60356
5.6836
5.6839
5.60448
5.4402
5.18024
4.80668
4.29221
3.59645
2.6608
1.413
0.113772
0.114756
1.43198
2.70874
3.67432
4.39772
4.93596
5.32873
5.60314
5.77716
5.86174
5.86206
5.77811
5.60469
5.33084
4.93855
4.40065
3.67739
2.71159
1.43399
0.115047
0.115374
1.4421
2.73316
3.71324
4.44994
4.99959
5.40154
5.68281
5.86137
5.9482
5.94852
5.86233
5.68439
5.40368
5.0022
4.45289
3.71633
2.73602
1.44413
0.115666
0.115374
1.4421
2.73316
3.71324
4.44994
4.99959
5.40154
5.68281
5.86137
5.9482
5.94852
5.86233
5.68439
5.40368
5.0022
4.4529
3.71633
2.73602
1.44413
0.115666
0.114756
1.43198
2.70874
3.67432
4.39772
4.93596
5.32873
5.60314
5.77716
5.86174
5.86206
5.77811
5.6047
5.33084
4.93855
4.40065
3.67739
2.71159
1.43399
0.115047
0.113483
1.411
2.65799
3.59344
4.28934
4.80416
5.17819
5.4387
5.60356
5.6836
5.68391
5.60448
5.44021
5.18024
4.80668
4.29221
3.59645
2.6608
1.413
0.113772
0.111472
1.37756
2.5766
3.46374
4.1161
4.59431
4.93941
5.17865
5.32959
5.40276
5.40305
5.33047
5.18008
4.94137
4.59673
4.11886
3.46667
2.57935
1.37953
0.111759
0.108574
1.32862
2.45656
3.27295
3.86282
4.28961
4.59479
4.80508
4.93727
5.00123
5.00149
4.93807
4.8064
4.59661
4.29186
3.86542
3.27572
2.4592
1.33054
0.108857
0.10452
1.25853
2.28335
2.99982
3.50448
3.86332
4.11706
4.2907
4.39944
4.45195
4.45218
4.40014
4.29187
4.11867
3.86534
3.50683
3.00237
2.28582
1.26036
0.104797
0.098805
1.1559
2.0295
2.60741
3.00033
3.27392
3.46512
3.59516
3.67634
3.71549
3.71569
3.67691
3.59611
3.46644
3.27559
3.00231
2.60961
2.0317
1.15759
0.0990731
0.090304
0.993769
1.63921
2.03001
2.28429
2.45787
2.57821
2.65986
2.71081
2.7354
2.73553
2.71121
2.66052
2.57914
2.45906
2.28573
2.03166
1.64095
0.995219
0.0905573
0.0757098
0.691101
0.994241
1.15671
1.25959
1.32987
1.37897
1.41253
1.43361
1.44382
1.44388
1.4338
1.41285
1.37941
1.33044
1.26029
1.15754
0.995194
0.692053
0.0759345
0.0417966
0.0758143
0.0904548
0.0989865
0.104724
0.108795
0.111708
0.11373
0.115012
0.115637
0.115643
0.115028
0.113757
0.111747
0.108847
0.104789
0.0990665
0.0905521
0.075931
0.0420085
)
;

boundaryField
{
    leftWall
    {
        type            compressible::alphatWallFunction;
        value           nonuniform List<scalar> 
20
(
0.00849408
0.0144314
0.0169189
0.0183571
0.0193198
0.0200003
0.0204859
0.0208222
0.0210348
0.021138
0.021138
0.0210348
0.0208222
0.0204859
0.0200003
0.0193198
0.0183571
0.0169189
0.0144314
0.00849408
)
;
    }
    rightWall
    {
        type            compressible::alphatWallFunction;
        value           nonuniform List<scalar> 
20
(
0.00942037
0.016811
0.0198915
0.0216677
0.0228547
0.0236931
0.0242909
0.0247047
0.0249663
0.0250932
0.0250932
0.0249663
0.0247047
0.0242909
0.0236931
0.0228547
0.0216677
0.0198915
0.016811
0.00942037
)
;
    }
    topWall
    {
        type            compressible::alphatWallFunction;
        value           nonuniform List<scalar> 
20
(
0.00942243
0.0168164
0.0198943
0.0216696
0.0228559
0.0236938
0.0242912
0.0247047
0.0249661
0.0250928
0.0250926
0.0249656
0.0247038
0.0242899
0.023692
0.0228536
0.0216667
0.0198906
0.0168104
0.00942037
)
;
    }
    bottomWall
    {
        type            compressible::alphatWallFunction;
        value           nonuniform List<scalar> 
20
(
0.00942243
0.0168164
0.0198943
0.0216696
0.0228559
0.0236938
0.0242912
0.0247047
0.0249661
0.0250928
0.0250926
0.0249656
0.0247038
0.0242899
0.023692
0.0228536
0.0216667
0.0198906
0.0168104
0.00942037
)
;
    }
    frontAndBackPlanes
    {
        type            empty;
    }
}


// ************************************************************************* //
