/*--------------------------------*- C++ -*----------------------------------*\
| =========                 |                                                 |
| \\      /  F ield         | OpenFOAM: The Open Source CFD Toolbox           |
|  \\    /   O peration     | Version:  2506                                  |
|   \\  /    A nd           | Website:  www.openfoam.com                      |
|    \\/     M anipulation  |                                                 |
\*---------------------------------------------------------------------------*/
FoamFile
{
    version     2.0;
    format      ascii;
    arch        "LSB;label=32;scalar=64";
    class       volScalarField;
    location    "5.246527766851";
    object      epsilon;
}
// * * * * * * * * * * * * * * * * * * * * * * * * * * * * * * * * * * * * * //

dimensions      [0 2 -3 0 0 0 0];

internalField   nonuniform List<scalar> 
400
(
0.000670261
0.00376026
0.00633856
0.00829123
0.00981151
0.0109972
0.0119019
0.012558
0.0129857
0.0131966
0.0131963
0.0129848
0.0125566
0.0118999
0.0109946
0.00980845
0.00828779
0.00633487
0.00375602
0.000669181
0.00376281
0.0029746
0.0035807
0.00420749
0.00474749
0.00518782
0.00553171
0.00578445
0.00595047
0.0060327
0.00603261
0.00595021
0.00578401
0.00553108
0.00518699
0.00474644
0.00420618
0.00357905
0.00297234
0.00375639
0.00634286
0.00358135
0.0035846
0.00385053
0.00414349
0.00440737
0.0046245
0.00478895
0.00489888
0.00495384
0.00495378
0.00489868
0.0047886
0.00462399
0.0044067
0.00414261
0.0038494
0.00358311
0.00357917
0.00633567
0.0082971
0.00420866
0.00385094
0.00391147
0.00406579
0.00423202
0.00438016
0.00449736
0.00457768
0.00461835
0.00461829
0.00457749
0.00449704
0.00437969
0.00423138
0.00406495
0.00391036
0.00384945
0.00420637
0.00828891
0.00981906
0.00474911
0.00414422
0.00406609
0.00412578
0.00422448
0.00432456
0.00440873
0.00446834
0.00449904
0.00449898
0.00446816
0.00440841
0.00432409
0.00422384
0.00412494
0.00406497
0.00414269
0.00474668
0.00980979
0.0110063
0.00518985
0.00440836
0.00423254
0.0042247
0.00427429
0.00433885
0.00439835
0.00444237
0.00446553
0.00446547
0.00444219
0.00439803
0.00433839
0.00427366
0.00422385
0.00423142
0.00440679
0.00518727
0.0109961
0.0119124
0.00553409
0.00462571
0.00438088
0.00432495
0.00433903
0.00437747
0.00441858
0.0044509
0.00446836
0.0044683
0.00445072
0.00441827
0.00437701
0.00433839
0.00432411
0.00437974
0.0046241
0.00553137
0.0119013
0.0125696
0.00578712
0.00479034
0.00449823
0.00440927
0.00439866
0.00441872
0.00444674
0.00447066
0.00448401
0.00448395
0.00447047
0.00444643
0.00441825
0.00439802
0.00440842
0.00449708
0.00478871
0.0057843
0.012558
0.0129981
0.00595335
0.00490042
0.00457866
0.00446899
0.00444279
0.00445114
0.00447076
0.00448925
0.00449994
0.00449988
0.00448906
0.00447045
0.00445068
0.00444215
0.00446814
0.0045775
0.00489876
0.00595046
0.012986
0.0132097
0.00603574
0.00495548
0.00461942
0.00449977
0.00446603
0.00446869
0.0044842
0.00450002
0.0045094
0.00450934
0.00449983
0.00448388
0.00446822
0.00446539
0.00449892
0.00461826
0.00495381
0.00603281
0.0131973
0.0132097
0.00603573
0.00495548
0.00461942
0.00449977
0.00446603
0.00446869
0.0044842
0.00450002
0.0045094
0.00450934
0.00449983
0.00448388
0.00446822
0.00446539
0.00449892
0.00461826
0.00495381
0.00603281
0.0131973
0.0129981
0.00595335
0.00490042
0.00457866
0.00446899
0.00444279
0.00445114
0.00447076
0.00448925
0.00449994
0.00449988
0.00448906
0.00447045
0.00445068
0.00444215
0.00446814
0.0045775
0.00489876
0.00595046
0.012986
0.0125696
0.00578712
0.00479034
0.00449822
0.00440927
0.00439865
0.00441872
0.00444674
0.00447066
0.00448401
0.00448395
0.00447047
0.00444643
0.00441825
0.00439802
0.00440842
0.00449708
0.00478871
0.0057843
0.012558
0.0119124
0.00553409
0.00462571
0.00438087
0.00432495
0.00433903
0.00437747
0.00441858
0.0044509
0.00446836
0.0044683
0.00445072
0.00441827
0.00437701
0.00433839
0.00432411
0.00437974
0.0046241
0.00553138
0.0119013
0.0110063
0.00518985
0.00440836
0.00423254
0.0042247
0.00427429
0.00433885
0.00439834
0.00444237
0.00446553
0.00446547
0.00444219
0.00439803
0.00433839
0.00427366
0.00422385
0.00423142
0.00440679
0.00518727
0.0109961
0.00981906
0.00474911
0.00414422
0.00406609
0.00412578
0.00422447
0.00432455
0.00440873
0.00446834
0.00449904
0.00449898
0.00446816
0.00440841
0.00432409
0.00422384
0.00412494
0.00406497
0.00414269
0.00474668
0.0098098
0.0082971
0.00420866
0.00385094
0.00391147
0.00406579
0.00423202
0.00438016
0.00449736
0.00457768
0.00461835
0.00461829
0.00457749
0.00449704
0.00437969
0.00423138
0.00406495
0.00391036
0.00384945
0.00420637
0.00828892
0.00634286
0.00358135
0.0035846
0.00385053
0.00414349
0.00440737
0.0046245
0.00478895
0.00489888
0.00495384
0.00495378
0.00489868
0.0047886
0.004624
0.0044067
0.00414261
0.0038494
0.00358311
0.00357917
0.00633567
0.00376281
0.0029746
0.0035807
0.00420748
0.00474749
0.00518782
0.00553171
0.00578445
0.00595047
0.0060327
0.00603261
0.00595021
0.00578402
0.00553108
0.00518699
0.00474644
0.00420618
0.00357905
0.00297234
0.00375639
0.000670261
0.00376026
0.00633856
0.00829123
0.00981151
0.0109972
0.0119019
0.012558
0.0129857
0.0131966
0.0131963
0.0129848
0.0125566
0.0118999
0.0109946
0.00980846
0.00828779
0.00633488
0.00375602
0.000669181
)
;

boundaryField
{
    leftWall
    {
        type            epsilonWallFunction;
        blending        stepwise;
        value           nonuniform List<scalar> 
20
(
0.000670261
0.00376281
0.00634286
0.0082971
0.00981906
0.0110063
0.0119124
0.0125696
0.0129981
0.0132097
0.0132097
0.0129981
0.0125696
0.0119124
0.0110063
0.00981906
0.0082971
0.00634286
0.00376281
0.000670261
)
;
    }
    rightWall
    {
        type            epsilonWallFunction;
        blending        stepwise;
        value           nonuniform List<scalar> 
20
(
0.000669181
0.00375639
0.00633567
0.00828891
0.00980979
0.0109961
0.0119013
0.012558
0.012986
0.0131973
0.0131973
0.012986
0.012558
0.0119013
0.0109961
0.0098098
0.00828892
0.00633567
0.00375639
0.000669181
)
;
    }
    topWall
    {
        type            epsilonWallFunction;
        blending        stepwise;
        value           nonuniform List<scalar> 
20
(
0.000670261
0.00376026
0.00633856
0.00829123
0.00981151
0.0109972
0.0119019
0.012558
0.0129857
0.0131966
0.0131963
0.0129848
0.0125566
0.0118999
0.0109946
0.00980845
0.00828779
0.00633487
0.00375602
0.000669181
)
;
    }
    bottomWall
    {
        type            epsilonWallFunction;
        blending        stepwise;
        value           nonuniform List<scalar> 
20
(
0.000670261
0.00376026
0.00633856
0.00829123
0.00981151
0.0109972
0.0119019
0.012558
0.0129857
0.0131966
0.0131963
0.0129848
0.0125566
0.0118999
0.0109946
0.00980846
0.00828779
0.00633488
0.00375602
0.000669181
)
;
    }
    frontAndBackPlanes
    {
        type            empty;
    }
}


// ************************************************************************* //
