/*--------------------------------*- C++ -*----------------------------------*\
| =========                 |                                                 |
| \\      /  F ield         | OpenFOAM: The Open Source CFD Toolbox           |
|  \\    /   O peration     | Version:  2506                                  |
|   \\  /    A nd           | Website:  www.openfoam.com                      |
|    \\/     M anipulation  |                                                 |
\*---------------------------------------------------------------------------*/
FoamFile
{
    version     2.0;
    format      ascii;
    arch        "LSB;label=32;scalar=64";
    class       volScalarField;
    location    "5.246527766851";
    object      k;
}
// * * * * * * * * * * * * * * * * * * * * * * * * * * * * * * * * * * * * * //

dimensions      [0 2 -2 0 0 0 0];

internalField   nonuniform List<scalar> 
400
(
0.000558741
0.00178029
0.00252399
0.00301933
0.00337803
0.00364489
0.00384206
0.00398192
0.00407176
0.0041157
0.00411564
0.00407157
0.00398161
0.00384162
0.00364432
0.00337731
0.00301849
0.00252302
0.00177897
0.000558506
0.00178108
0.0047809
0.00628985
0.00735303
0.00814973
0.00875306
0.00920326
0.00952452
0.00973161
0.00983309
0.00983293
0.00973112
0.00952369
0.00920208
0.0087515
0.00814778
0.00735066
0.00628704
0.00477774
0.0017791
0.00252515
0.00629046
0.00808077
0.00931885
0.0102534
0.0109683
0.0115063
0.0118924
0.0121423
0.012265
0.0122648
0.0121417
0.0118915
0.011505
0.0109666
0.0102512
0.00931624
0.00807775
0.00628721
0.00252324
0.00302077
0.00735428
0.00931949
0.0106446
0.0116404
0.0124047
0.0129824
0.0133988
0.013669
0.013802
0.0138018
0.0136684
0.0133978
0.012981
0.0124028
0.0116382
0.0106419
0.00931636
0.00735094
0.00301878
0.00337977
0.00815157
0.0102546
0.0116411
0.012673
0.0134632
0.0140611
0.0144928
0.0147735
0.0149118
0.0149116
0.0147729
0.0144918
0.0140596
0.0134613
0.0126706
0.0116382
0.0102514
0.00814811
0.00337764
0.00364693
0.00875542
0.0109702
0.0124059
0.0134638
0.01427
0.0148791
0.015319
0.0156051
0.0157461
0.0157459
0.0156044
0.0153179
0.0148776
0.0142681
0.0134613
0.0124029
0.0109668
0.00875185
0.00364465
0.00384434
0.00920608
0.0115086
0.012984
0.0140621
0.0148796
0.0154956
0.0159399
0.0162289
0.0163713
0.0163711
0.0162282
0.0159388
0.0154941
0.0148776
0.0140596
0.0129811
0.0115052
0.00920241
0.00384195
0.0039844
0.00952773
0.0118951
0.0134008
0.0144943
0.0153199
0.0159404
0.0163873
0.0166777
0.0168208
0.0168206
0.0166771
0.0163862
0.0159388
0.0153178
0.0144917
0.0133978
0.0118916
0.00952397
0.00398191
0.00407439
0.00973513
0.0121453
0.0136714
0.0147753
0.0156064
0.0162297
0.0166781
0.0169693
0.0171128
0.0171125
0.0169686
0.016677
0.0162281
0.0156043
0.0147728
0.0136684
0.0121418
0.0097313
0.00407184
0.00411844
0.00983685
0.0122683
0.0138047
0.0149139
0.0157477
0.0163724
0.0168215
0.0171131
0.0172566
0.0172564
0.0171124
0.0168203
0.0163707
0.0157456
0.0149113
0.0138016
0.0122647
0.00983299
0.00411586
0.00411844
0.00983685
0.0122683
0.0138047
0.0149139
0.0157477
0.0163724
0.0168215
0.0171131
0.0172566
0.0172564
0.0171124
0.0168203
0.0163707
0.0157456
0.0149113
0.0138016
0.0122647
0.00983299
0.00411586
0.00407439
0.00973513
0.0121453
0.0136714
0.0147753
0.0156064
0.0162297
0.0166781
0.0169693
0.0171128
0.0171125
0.0169686
0.016677
0.0162281
0.0156043
0.0147728
0.0136684
0.0121418
0.00973131
0.00407184
0.0039844
0.00952773
0.0118951
0.0134008
0.0144943
0.0153199
0.0159404
0.0163873
0.0166777
0.0168208
0.0168206
0.0166771
0.0163862
0.0159388
0.0153178
0.0144917
0.0133978
0.0118916
0.00952397
0.00398191
0.00384434
0.00920608
0.0115086
0.012984
0.0140621
0.0148796
0.0154956
0.0159399
0.0162289
0.0163713
0.0163711
0.0162282
0.0159388
0.0154941
0.0148776
0.0140596
0.0129811
0.0115052
0.00920241
0.00384195
0.00364693
0.00875542
0.0109702
0.0124059
0.0134638
0.01427
0.0148791
0.015319
0.0156051
0.0157461
0.0157459
0.0156044
0.0153179
0.0148776
0.0142681
0.0134613
0.0124029
0.0109668
0.00875185
0.00364465
0.00337977
0.00815157
0.0102546
0.0116411
0.012673
0.0134632
0.0140611
0.0144928
0.0147735
0.0149118
0.0149116
0.0147729
0.0144918
0.0140596
0.0134613
0.0126706
0.0116382
0.0102514
0.00814812
0.00337764
0.00302077
0.00735428
0.00931949
0.0106446
0.0116404
0.0124047
0.0129824
0.0133988
0.013669
0.013802
0.0138018
0.0136684
0.0133978
0.012981
0.0124028
0.0116382
0.0106419
0.00931636
0.00735094
0.00301878
0.00252515
0.00629046
0.00808077
0.00931885
0.0102534
0.0109683
0.0115063
0.0118924
0.0121423
0.012265
0.0122648
0.0121417
0.0118915
0.011505
0.0109666
0.0102512
0.00931624
0.00807775
0.00628721
0.00252324
0.00178108
0.0047809
0.00628985
0.00735303
0.00814973
0.00875306
0.00920326
0.00952452
0.00973161
0.00983309
0.00983293
0.00973112
0.00952369
0.00920208
0.0087515
0.00814778
0.00735066
0.00628704
0.00477774
0.0017791
0.000558741
0.00178029
0.00252399
0.00301933
0.00337803
0.00364489
0.00384206
0.00398192
0.00407176
0.0041157
0.00411564
0.00407157
0.00398161
0.00384162
0.00364432
0.00337731
0.00301849
0.00252302
0.00177898
0.000558506
)
;

boundaryField
{
    leftWall
    {
        type            kqRWallFunction;
        value           nonuniform List<scalar> 
20
(
0.000558741
0.00178108
0.00252515
0.00302077
0.00337977
0.00364693
0.00384434
0.0039844
0.00407439
0.00411844
0.00411844
0.00407439
0.0039844
0.00384434
0.00364693
0.00337977
0.00302077
0.00252515
0.00178108
0.000558741
)
;
    }
    rightWall
    {
        type            kqRWallFunction;
        value           nonuniform List<scalar> 
20
(
0.000558506
0.0017791
0.00252324
0.00301878
0.00337764
0.00364465
0.00384195
0.00398191
0.00407184
0.00411586
0.00411586
0.00407184
0.00398191
0.00384195
0.00364465
0.00337764
0.00301878
0.00252324
0.0017791
0.000558506
)
;
    }
    topWall
    {
        type            kqRWallFunction;
        value           nonuniform List<scalar> 
20
(
0.000558741
0.00178029
0.00252399
0.00301933
0.00337803
0.00364489
0.00384206
0.00398192
0.00407176
0.0041157
0.00411564
0.00407157
0.00398161
0.00384162
0.00364432
0.00337731
0.00301849
0.00252302
0.00177897
0.000558506
)
;
    }
    bottomWall
    {
        type            kqRWallFunction;
        value           nonuniform List<scalar> 
20
(
0.000558741
0.00178029
0.00252399
0.00301933
0.00337803
0.00364489
0.00384206
0.00398192
0.00407176
0.0041157
0.00411564
0.00407157
0.00398161
0.00384162
0.00364432
0.00337731
0.00301849
0.00252302
0.00177898
0.000558506
)
;
    }
    frontAndBackPlanes
    {
        type            empty;
    }
}


// ************************************************************************* //
