/*--------------------------------*- C++ -*----------------------------------*\
| =========                 |                                                 |
| \\      /  F ield         | OpenFOAM: The Open Source CFD Toolbox           |
|  \\    /   O peration     | Version:  2506                                  |
|   \\  /    A nd           | Website:  www.openfoam.com                      |
|    \\/     M anipulation  |                                                 |
\*---------------------------------------------------------------------------*/
FoamFile
{
    version     2.0;
    format      ascii;
    arch        "LSB;label=32;scalar=64";
    class       volScalarField;
    location    "5.246527766851";
    object      nut;
}
// * * * * * * * * * * * * * * * * * * * * * * * * * * * * * * * * * * * * * //

dimensions      [0 2 -1 0 0 0 0];

internalField   nonuniform List<scalar> 
400
(
4.19198e-05
7.58585e-05
9.04538e-05
9.89567e-05
0.000104672
0.000108726
0.000111624
0.000113634
0.000114906
0.000115523
0.000115522
0.000114903
0.000113629
0.000111616
0.000108716
0.000104661
9.89425e-05
9.04367e-05
7.58323e-05
4.19522e-05
7.5875e-05
0.000691567
0.000994386
0.00115652
0.00125911
0.00132916
0.00137806
0.00141145
0.00143239
0.00144248
0.00144246
0.00143231
0.00141131
0.00137786
0.0013289
0.00125879
0.00115613
0.000993956
0.000691175
7.58357e-05
9.04753e-05
0.000994399
0.00163948
0.00202977
0.00228354
0.00245666
0.00257662
0.00265793
0.00270861
0.00273297
0.00273292
0.00270847
0.00265771
0.0025763
0.00245626
0.00228306
0.00202923
0.00163894
0.000993977
9.04415e-05
9.89809e-05
0.00115659
0.00202983
0.00260713
0.00299941
0.0032724
0.00346307
0.00359265
0.00367344
0.00371228
0.00371223
0.00367328
0.00359238
0.00346269
0.00327193
0.00299886
0.00260653
0.00202925
0.00115617
9.89482e-05
0.0001047
0.00125925
0.0022837
0.00299951
0.00350345
0.00386159
0.0041147
0.00428779
0.00439606
0.00444818
0.00444812
0.00439587
0.00428749
0.00411428
0.00386107
0.00350285
0.00299887
0.0022831
0.00125883
0.000104667
0.000108757
0.00132936
0.00245692
0.00327261
0.00386171
0.00428774
0.00459222
0.00480189
0.00493355
0.00499707
0.004997
0.00493335
0.00480156
0.00459177
0.00428718
0.00386108
0.00327195
0.0024563
0.00132893
0.000108722
0.000111658
0.00137831
0.00257697
0.00346339
0.00411493
0.00459234
0.0049367
0.00517526
0.00532564
0.00539833
0.00539826
0.00532543
0.00517492
0.00493623
0.00459176
0.00411428
0.0034627
0.00257633
0.00137788
0.000111622
0.00011367
0.00141175
0.00265836
0.00359307
0.00428814
0.00480212
0.00517538
0.00543519
0.00559945
0.00567899
0.00567891
0.00559923
0.00543483
0.00517489
0.00480153
0.00428746
0.00359237
0.00265771
0.00141133
0.000113634
0.000114944
0.00143273
0.00270911
0.00367395
0.0043965
0.00493389
0.00532586
0.00559955
0.00577295
0.00585702
0.00585694
0.00577273
0.00559919
0.00532536
0.00493328
0.00439581
0.00367324
0.00270845
0.0014323
0.000114907
0.000115563
0.00144286
0.00273353
0.00371286
0.0044487
0.00499749
0.00539864
0.00567919
0.00585711
0.00594342
0.00594334
0.00585688
0.00567881
0.00539814
0.00499688
0.00444801
0.00371214
0.00273287
0.00144243
0.000115525
0.000115563
0.00144286
0.00273353
0.00371286
0.0044487
0.0049975
0.00539864
0.00567919
0.00585711
0.00594342
0.00594334
0.00585688
0.00567881
0.00539814
0.00499688
0.00444801
0.00371214
0.00273287
0.00144243
0.000115525
0.000114944
0.00143273
0.00270911
0.00367395
0.0043965
0.00493389
0.00532586
0.00559955
0.00577295
0.00585702
0.00585694
0.00577273
0.00559919
0.00532536
0.00493328
0.00439581
0.00367324
0.00270845
0.0014323
0.000114907
0.00011367
0.00141175
0.00265836
0.00359307
0.00428814
0.00480212
0.00517538
0.00543519
0.00559945
0.00567899
0.00567891
0.00559923
0.00543483
0.00517489
0.00480153
0.00428746
0.00359237
0.00265771
0.00141133
0.000113634
0.000111658
0.00137831
0.00257697
0.00346339
0.00411493
0.00459234
0.0049367
0.00517526
0.00532564
0.00539833
0.00539826
0.00532543
0.00517492
0.00493623
0.00459177
0.00411428
0.0034627
0.00257633
0.00137788
0.000111622
0.000108757
0.00132936
0.00245692
0.00327261
0.00386171
0.00428774
0.00459222
0.00480189
0.00493355
0.00499707
0.004997
0.00493335
0.00480156
0.00459177
0.00428719
0.00386108
0.00327195
0.0024563
0.00132893
0.000108722
0.0001047
0.00125925
0.0022837
0.00299951
0.00350345
0.00386159
0.0041147
0.00428779
0.00439606
0.00444818
0.00444812
0.00439587
0.00428749
0.00411428
0.00386107
0.00350285
0.00299887
0.0022831
0.00125883
0.000104667
9.89809e-05
0.00115659
0.00202983
0.00260713
0.00299941
0.0032724
0.00346307
0.00359265
0.00367344
0.00371228
0.00371223
0.00367328
0.00359238
0.00346269
0.00327193
0.00299886
0.00260653
0.00202926
0.00115617
9.89482e-05
9.04753e-05
0.000994399
0.00163948
0.00202977
0.00228354
0.00245666
0.00257662
0.00265793
0.00270861
0.00273297
0.00273292
0.00270847
0.00265771
0.0025763
0.00245626
0.00228306
0.00202923
0.00163894
0.000993977
9.04416e-05
7.5875e-05
0.000691567
0.000994386
0.00115652
0.00125911
0.00132916
0.00137806
0.00141145
0.00143239
0.00144248
0.00144246
0.00143231
0.00141131
0.00137786
0.0013289
0.00125879
0.00115613
0.000993956
0.000691175
7.58357e-05
4.19198e-05
7.58585e-05
9.04538e-05
9.89567e-05
0.000104672
0.000108726
0.000111624
0.000113634
0.000114906
0.000115523
0.000115522
0.000114903
0.000113629
0.000111616
0.000108716
0.000104661
9.89425e-05
9.04367e-05
7.58323e-05
4.19522e-05
)
;

boundaryField
{
    leftWall
    {
        type            nutkWallFunction;
        blending        stepwise;
        value           nonuniform List<scalar> 
20
(
7.41656e-06
1.26007e-05
1.47727e-05
1.60284e-05
1.68689e-05
1.74632e-05
1.78871e-05
1.81808e-05
1.83665e-05
1.84565e-05
1.84565e-05
1.83665e-05
1.81808e-05
1.78871e-05
1.74632e-05
1.68689e-05
1.60284e-05
1.47727e-05
1.26007e-05
7.41656e-06
)
;
    }
    rightWall
    {
        type            nutkWallFunction;
        blending        stepwise;
        value           nonuniform List<scalar> 
20
(
7.99644e-06
1.42699e-05
1.68848e-05
1.83925e-05
1.94001e-05
2.01118e-05
2.06192e-05
2.09705e-05
2.11926e-05
2.13003e-05
2.13003e-05
2.11926e-05
2.09705e-05
2.06192e-05
2.01118e-05
1.94001e-05
1.83925e-05
1.68848e-05
1.42699e-05
7.99644e-06
)
;
    }
    topWall
    {
        type            nutkWallFunction;
        blending        stepwise;
        value           nonuniform List<scalar> 
20
(
7.99818e-06
1.42745e-05
1.68872e-05
1.83941e-05
1.94012e-05
2.01124e-05
2.06195e-05
2.09705e-05
2.11924e-05
2.12999e-05
2.12997e-05
2.11919e-05
2.09697e-05
2.06184e-05
2.01109e-05
1.93992e-05
1.83917e-05
1.68841e-05
1.42694e-05
7.99644e-06
)
;
    }
    bottomWall
    {
        type            nutkWallFunction;
        blending        stepwise;
        value           nonuniform List<scalar> 
20
(
7.99818e-06
1.42745e-05
1.68872e-05
1.83941e-05
1.94012e-05
2.01124e-05
2.06195e-05
2.09705e-05
2.11924e-05
2.12999e-05
2.12997e-05
2.11919e-05
2.09697e-05
2.06184e-05
2.01109e-05
1.93992e-05
1.83917e-05
1.68841e-05
1.42694e-05
7.99644e-06
)
;
    }
    frontAndBackPlanes
    {
        type            empty;
    }
}


// ************************************************************************* //
