/*--------------------------------*- C++ -*----------------------------------*\
| =========                 |                                                 |
| \\      /  F ield         | OpenFOAM: The Open Source CFD Toolbox           |
|  \\    /   O peration     | Version:  2506                                  |
|   \\  /    A nd           | Website:  www.openfoam.com                      |
|    \\/     M anipulation  |                                                 |
\*---------------------------------------------------------------------------*/
FoamFile
{
    version     2.0;
    format      ascii;
    arch        "LSB;label=32;scalar=64";
    class       volScalarField;
    location    "5.246527766851";
    object      rho;
}
// * * * * * * * * * * * * * * * * * * * * * * * * * * * * * * * * * * * * * //

dimensions      [1 -3 0 0 0 0 0];

internalField   nonuniform List<scalar> 
400
(
997.061
999.418
1000.01
1000.3
1000.49
1000.64
1000.75
1000.85
1000.92
1000.99
1001.04
1001.09
1001.13
1001.17
1001.2
1001.23
1001.25
1001.28
1001.3
1001.34
997.824
999.327
999.855
1000.16
1000.38
1000.54
1000.66
1000.76
1000.85
1000.92
1000.99
1001.04
1001.09
1001.13
1001.16
1001.19
1001.22
1001.25
1001.27
1001.3
998.107
999.367
999.835
1000.12
1000.33
1000.49
1000.62
1000.73
1000.81
1000.89
1000.96
1001.01
1001.06
1001.1
1001.14
1001.17
1001.2
1001.22
1001.25
1001.28
998.223
999.404
999.838
1000.11
1000.31
1000.46
1000.59
1000.7
1000.79
1000.87
1000.93
1000.99
1001.04
1001.08
1001.12
1001.15
1001.18
1001.21
1001.23
1001.26
998.282
999.431
999.845
1000.1
1000.29
1000.45
1000.57
1000.68
1000.77
1000.85
1000.91
1000.97
1001.02
1001.07
1001.1
1001.14
1001.17
1001.19
1001.22
1001.25
998.317
999.449
999.852
1000.1
1000.29
1000.44
1000.56
1000.66
1000.75
1000.83
1000.9
1000.96
1001.01
1001.05
1001.09
1001.12
1001.15
1001.18
1001.2
1001.24
998.34
999.461
999.857
1000.1
1000.28
1000.43
1000.55
1000.65
1000.74
1000.82
1000.89
1000.95
1001
1001.04
1001.08
1001.11
1001.14
1001.17
1001.2
1001.23
998.354
999.469
999.861
1000.1
1000.28
1000.42
1000.54
1000.65
1000.73
1000.81
1000.88
1000.94
1000.99
1001.03
1001.07
1001.11
1001.14
1001.16
1001.19
1001.22
998.363
999.473
999.863
1000.1
1000.28
1000.42
1000.54
1000.64
1000.73
1000.81
1000.87
1000.93
1000.98
1001.03
1001.07
1001.1
1001.13
1001.16
1001.18
1001.22
998.367
999.476
999.864
1000.1
1000.28
1000.42
1000.54
1000.64
1000.73
1000.8
1000.87
1000.93
1000.98
1001.03
1001.06
1001.1
1001.13
1001.16
1001.18
1001.22
998.367
999.476
999.864
1000.1
1000.28
1000.42
1000.54
1000.64
1000.73
1000.8
1000.87
1000.93
1000.98
1001.03
1001.06
1001.1
1001.13
1001.16
1001.18
1001.22
998.363
999.473
999.863
1000.1
1000.28
1000.42
1000.54
1000.64
1000.73
1000.81
1000.87
1000.93
1000.98
1001.03
1001.07
1001.1
1001.13
1001.16
1001.18
1001.22
998.354
999.469
999.861
1000.1
1000.28
1000.42
1000.54
1000.65
1000.73
1000.81
1000.88
1000.94
1000.99
1001.03
1001.07
1001.11
1001.14
1001.16
1001.19
1001.22
998.34
999.461
999.857
1000.1
1000.28
1000.43
1000.55
1000.65
1000.74
1000.82
1000.89
1000.95
1001
1001.04
1001.08
1001.11
1001.14
1001.17
1001.2
1001.23
998.317
999.449
999.852
1000.1
1000.29
1000.44
1000.56
1000.66
1000.75
1000.83
1000.9
1000.96
1001.01
1001.05
1001.09
1001.12
1001.15
1001.18
1001.2
1001.24
998.282
999.431
999.845
1000.1
1000.29
1000.45
1000.57
1000.68
1000.77
1000.85
1000.91
1000.97
1001.02
1001.07
1001.1
1001.14
1001.17
1001.19
1001.22
1001.25
998.223
999.404
999.838
1000.11
1000.31
1000.46
1000.59
1000.7
1000.79
1000.87
1000.93
1000.99
1001.04
1001.08
1001.12
1001.15
1001.18
1001.21
1001.23
1001.26
998.107
999.367
999.835
1000.12
1000.33
1000.49
1000.62
1000.73
1000.81
1000.89
1000.96
1001.01
1001.06
1001.1
1001.14
1001.17
1001.2
1001.22
1001.25
1001.28
997.824
999.327
999.855
1000.16
1000.38
1000.54
1000.66
1000.76
1000.85
1000.92
1000.99
1001.04
1001.09
1001.13
1001.16
1001.19
1001.22
1001.25
1001.27
1001.3
997.061
999.418
1000.01
1000.3
1000.49
1000.64
1000.75
1000.85
1000.92
1000.99
1001.04
1001.09
1001.13
1001.17
1001.2
1001.23
1001.25
1001.28
1001.3
1001.34
)
;

boundaryField
{
    leftWall
    {
        type            calculated;
        value           uniform 973.493;
    }
    rightWall
    {
        type            calculated;
        value           uniform 1001.36;
    }
    topWall
    {
        type            calculated;
        value           uniform 1001.36;
    }
    bottomWall
    {
        type            calculated;
        value           uniform 1001.36;
    }
    frontAndBackPlanes
    {
        type            empty;
    }
}


// ************************************************************************* //
