/*--------------------------------*- C++ -*----------------------------------*\
| =========                 |                                                 |
| \\      /  F ield         | OpenFOAM: The Open Source CFD Toolbox           |
|  \\    /   O peration     | Version:  2506                                  |
|   \\  /    A nd           | Website:  www.openfoam.com                      |
|    \\/     M anipulation  |                                                 |
\*---------------------------------------------------------------------------*/
FoamFile
{
    version     2.0;
    format      ascii;
    arch        "LSB;label=32;scalar=64";
    class       volScalarField;
    location    "5.246527766851";
    object      T;
}
// * * * * * * * * * * * * * * * * * * * * * * * * * * * * * * * * * * * * * //

dimensions      [0 0 0 1 0 0 0];

internalField   nonuniform List<scalar> 
400
(
290.144
280.826
278.455
277.285
276.506
275.923
275.462
275.086
274.772
274.507
274.281
274.087
273.92
273.776
273.65
273.538
273.438
273.342
273.237
273.078
287.151
281.191
279.079
277.841
276.986
276.342
275.831
275.414
275.065
274.769
274.516
274.299
274.111
273.949
273.806
273.682
273.57
273.468
273.366
273.235
286.034
281.031
279.159
278.002
277.167
276.522
276.003
275.574
275.214
274.907
274.644
274.417
274.22
274.05
273.901
273.771
273.656
273.552
273.452
273.328
285.577
280.881
279.146
278.06
277.259
276.628
276.113
275.683
275.318
275.006
274.738
274.505
274.304
274.128
273.976
273.843
273.727
273.622
273.523
273.396
285.342
280.775
279.116
278.08
277.31
276.696
276.189
275.762
275.397
275.084
274.812
274.577
274.372
274.194
274.039
273.905
273.787
273.682
273.582
273.452
285.202
280.703
279.089
278.087
277.34
276.741
276.243
275.821
275.458
275.144
274.872
274.634
274.428
274.248
274.092
273.956
273.838
273.732
273.631
273.497
285.114
280.655
279.068
278.088
277.359
276.772
276.282
275.864
275.503
275.19
274.918
274.68
274.472
274.292
274.135
273.998
273.879
273.773
273.67
273.532
285.057
280.624
279.054
278.088
277.37
276.792
276.308
275.894
275.536
275.224
274.952
274.714
274.506
274.324
274.167
274.029
273.909
273.803
273.699
273.559
285.024
280.605
279.045
278.088
277.377
276.805
276.325
275.914
275.557
275.246
274.974
274.736
274.528
274.346
274.188
274.05
273.93
273.823
273.718
273.577
285.008
280.597
279.04
278.088
277.38
276.811
276.333
275.923
275.567
275.257
274.985
274.747
274.539
274.357
274.199
274.061
273.94
273.833
273.728
273.585
285.008
280.597
279.04
278.088
277.38
276.811
276.333
275.923
275.567
275.257
274.985
274.747
274.539
274.357
274.199
274.061
273.94
273.833
273.728
273.585
285.024
280.605
279.045
278.088
277.377
276.805
276.325
275.914
275.557
275.246
274.974
274.736
274.528
274.346
274.188
274.05
273.93
273.823
273.718
273.577
285.057
280.624
279.054
278.088
277.37
276.792
276.308
275.894
275.536
275.224
274.952
274.714
274.506
274.324
274.167
274.029
273.909
273.803
273.699
273.559
285.114
280.655
279.068
278.088
277.359
276.772
276.282
275.864
275.503
275.19
274.918
274.68
274.472
274.292
274.135
273.998
273.879
273.773
273.67
273.532
285.202
280.703
279.089
278.087
277.34
276.741
276.243
275.821
275.458
275.144
274.872
274.634
274.428
274.248
274.092
273.956
273.838
273.732
273.631
273.497
285.342
280.775
279.116
278.08
277.31
276.696
276.189
275.762
275.397
275.084
274.812
274.577
274.372
274.194
274.039
273.905
273.787
273.682
273.582
273.452
285.577
280.881
279.146
278.06
277.259
276.628
276.113
275.683
275.318
275.006
274.738
274.505
274.304
274.128
273.976
273.843
273.727
273.622
273.523
273.396
286.034
281.031
279.159
278.002
277.167
276.522
276.003
275.574
275.214
274.907
274.644
274.417
274.22
274.05
273.901
273.771
273.656
273.552
273.452
273.328
287.151
281.191
279.079
277.841
276.986
276.342
275.831
275.414
275.065
274.769
274.516
274.299
274.111
273.949
273.806
273.682
273.57
273.468
273.366
273.235
290.144
280.826
278.455
277.285
276.506
275.923
275.462
275.086
274.772
274.507
274.281
274.087
273.92
273.776
273.65
273.538
273.438
273.342
273.237
273.078
)
;

boundaryField
{
    leftWall
    {
        type            fixedValue;
        value           uniform 373;
    }
    rightWall
    {
        type            fixedValue;
        value           uniform 273;
    }
    topWall
    {
        type            fixedValue;
        value           uniform 273;
    }
    bottomWall
    {
        type            fixedValue;
        value           uniform 273;
    }
    frontAndBackPlanes
    {
        type            empty;
    }
}


// ************************************************************************* //
