/*--------------------------------*- C++ -*----------------------------------*\
| =========                 |                                                 |
| \\      /  F ield         | OpenFOAM: The Open Source CFD Toolbox           |
|  \\    /   O peration     | Version:  2506                                  |
|   \\  /    A nd           | Website:  www.openfoam.com                      |
|    \\/     M anipulation  |                                                 |
\*---------------------------------------------------------------------------*/
FoamFile
{
    version     2.0;
    format      ascii;
    arch        "LSB;label=32;scalar=64";
    class       volScalarField;
    location    "1.557521";
    object      alphat;
}
// * * * * * * * * * * * * * * * * * * * * * * * * * * * * * * * * * * * * * //

dimensions      [1 -1 -1 0 0 0 0];

internalField   nonuniform List<scalar> 
200
(
0.100649
0.181785
0.2179
0.239798
0.255062
0.266257
0.274509
0.280384
0.284181
0.286049
0.181539
1.58073
2.25348
2.61674
2.84812
3.00676
3.11779
3.19375
3.24144
3.26451
0.217543
2.25232
3.62914
4.45529
4.99288
5.36069
5.61632
5.79002
5.89851
5.95082
0.239372
2.61479
4.45413
5.64482
6.44745
7.00466
7.39386
7.65862
7.82393
7.90361
0.254588
2.84562
4.99077
6.44636
7.45575
8.16759
8.66884
9.01116
9.22527
9.32855
0.265748
3.00385
5.35784
7.00265
8.16659
8.99821
9.58847
9.99342
10.2473
10.37
0.273973
3.11458
5.61289
7.39108
8.66697
9.58757
10.2453
10.6983
10.9831
11.1208
0.279829
3.19031
5.78613
7.65523
9.00858
9.99175
10.6976
11.1854
11.4926
11.6413
0.283611
3.23783
5.89427
7.82005
9.22212
10.245
10.9817
11.4919
11.8137
11.9696
0.285471
3.26078
5.94634
7.89937
9.32495
10.3671
11.1188
11.6401
11.969
12.1285
0.285471
3.26078
5.94634
7.89937
9.32495
10.3671
11.1188
11.6401
11.969
12.1285
0.283611
3.23783
5.89427
7.82005
9.22212
10.245
10.9817
11.4919
11.8137
11.9696
0.279829
3.19031
5.78613
7.65523
9.00858
9.99175
10.6976
11.1854
11.4926
11.6413
0.273973
3.11458
5.61289
7.39108
8.66697
9.58757
10.2453
10.6983
10.9831
11.1208
0.265748
3.00385
5.35784
7.00265
8.16659
8.99821
9.58847
9.99342
10.2473
10.37
0.254588
2.84562
4.99077
6.44636
7.45575
8.16759
8.66884
9.01116
9.22527
9.32855
0.239372
2.61479
4.45413
5.64482
6.44745
7.00466
7.39386
7.65862
7.82393
7.90362
0.217543
2.25232
3.62914
4.45529
4.99288
5.36069
5.61632
5.79002
5.8985
5.95082
0.181539
1.58073
2.25348
2.61674
2.84812
3.00676
3.11779
3.19375
3.24144
3.26451
0.100649
0.181785
0.2179
0.239798
0.255062
0.266257
0.274509
0.280384
0.284181
0.286049
)
;

boundaryField
{
    leftWall
    {
        type            compressible::alphatWallFunction;
        value           nonuniform List<scalar> 
20
(
0.0195573
0.0314761
0.0364818
0.0393349
0.0412082
0.0425053
0.0434118
0.0440279
0.0444118
0.0445963
0.0445963
0.0444118
0.0440279
0.0434118
0.0425053
0.0412082
0.0393349
0.0364818
0.0314761
0.0195573
)
;
    }
    rightWall
    {
        type            compressible::alphatWallFunction;
        value           nonuniform List<scalar> 0();
    }
    topWall
    {
        type            compressible::alphatWallFunction;
        value           nonuniform List<scalar> 10(0.0231543 0.0377637 0.0438692 0.0473424 0.04962 0.0511958 0.0522966 0.0530445 0.0535104 0.0537342);
    }
    bottomWall
    {
        type            compressible::alphatWallFunction;
        value           nonuniform List<scalar> 10(0.0231543 0.0377637 0.0438692 0.0473424 0.04962 0.0511958 0.0522966 0.0530445 0.0535104 0.0537342);
    }
    frontAndBackPlanes
    {
        type            empty;
    }
    procBoundary1to0
    {
        type            processor;
        value           nonuniform List<scalar> 
20
(
0.286054
3.26458
5.95099
7.90387
9.32887
10.3703
11.1213
11.6418
11.9701
12.1289
12.1289
11.9701
11.6418
11.1213
10.3703
9.32887
7.90387
5.95099
3.26458
0.286054
)
;
    }
}


// ************************************************************************* //
