/*--------------------------------*- C++ -*----------------------------------*\
| =========                 |                                                 |
| \\      /  F ield         | OpenFOAM: The Open Source CFD Toolbox           |
|  \\    /   O peration     | Version:  2506                                  |
|   \\  /    A nd           | Website:  www.openfoam.com                      |
|    \\/     M anipulation  |                                                 |
\*---------------------------------------------------------------------------*/
FoamFile
{
    version     2.0;
    format      ascii;
    arch        "LSB;label=32;scalar=64";
    class       surfaceScalarField;
    location    "1.557521";
    object      phi;
}
// * * * * * * * * * * * * * * * * * * * * * * * * * * * * * * * * * * * * * //

dimensions      [1 0 -1 0 0 0 0];

oriented        oriented;

internalField   nonuniform List<scalar> 
370
(
-9.3174e-06
-1.21444e-05
-2.94066e-06
-6.87354e-06
-2.87304e-07
-5.05487e-06
1.26985e-06
-4.48878e-06
2.17461e-06
-3.90366e-06
2.69649e-06
-3.38283e-06
2.98572e-06
-2.93352e-06
3.12631e-06
-2.54393e-06
3.16729e-06
-2.20679e-06
-1.91709e-06
-2.71692e-06
-8.29755e-06
-1.80326e-06
-6.69114e-06
-5.28778e-07
-5.31727e-06
3.81165e-07
-4.47625e-06
1.08201e-06
-3.77652e-06
1.61337e-06
-3.18329e-06
2.00299e-06
-2.68891e-06
2.27843e-06
-2.2783e-06
2.46248e-06
-1.9368e-06
-1.65302e-06
-9.44077e-07
-6.84137e-06
-9.00481e-07
-5.73468e-06
-4.7774e-07
-4.78379e-06
1.14319e-09
-4.0563e-06
4.80901e-07
-3.42795e-06
9.25473e-07
-2.87938e-06
1.31188e-06
-2.41172e-06
1.63116e-06
-2.01991e-06
1.8832e-06
-1.69466e-06
-1.42662e-06
-1.04933e-06
-5.77259e-06
-9.40118e-07
-4.90733e-06
-6.73651e-07
-4.13692e-06
-3.29583e-07
-3.52483e-06
5.5954e-08
-2.99177e-06
4.50208e-07
-2.51847e-06
8.2503e-07
-2.10636e-06
1.16156e-06
-1.75536e-06
1.44991e-06
-1.46135e-06
-1.21849e-06
-1.22347e-06
-4.7416e-06
-1.14601e-06
-4.09019e-06
-9.26723e-07
-3.47358e-06
-6.26877e-07
-2.96738e-06
-2.78546e-07
-2.525e-06
9.16172e-08
-2.13014e-06
4.58954e-07
-1.78226e-06
8.03966e-07
-1.48224e-06
1.11368e-06
-1.22856e-06
-1.01793e-06
-1.35729e-06
-3.74084e-06
-1.31565e-06
-3.26505e-06
-1.13412e-06
-2.79353e-06
-8.63359e-07
-2.39373e-06
-5.37128e-07
-2.04093e-06
-1.81607e-07
-1.72471e-06
1.80231e-07
-1.44417e-06
5.29426e-07
-1.20019e-06
8.52044e-07
-9.92352e-07
-8.18923e-07
-1.46891e-06
-2.77326e-06
-1.4432e-06
-2.44242e-06
-1.28704e-06
-2.10201e-06
-1.03811e-06
-1.80665e-06
-7.28373e-07
-1.54323e-06
-3.83874e-07
-1.30597e-06
-2.6982e-08
-1.09445e-06
3.23685e-07
-9.09439e-07
6.53812e-07
-7.50981e-07
-6.18224e-07
-1.55377e-06
-1.83276e-06
-1.53495e-06
-1.62479e-06
-1.39385e-06
-1.40418e-06
-1.15981e-06
-1.20979e-06
-8.62045e-07
-1.03494e-06
-5.25894e-07
-8.76796e-07
-1.73297e-07
-7.35303e-07
1.77347e-07
-6.11069e-07
5.11552e-07
-5.04279e-07
-4.14553e-07
-1.60946e-06
-9.11395e-07
-1.59367e-06
-8.11244e-07
-1.46112e-06
-7.02886e-07
-1.23631e-06
-6.06502e-07
-9.4636e-07
-5.19348e-07
-6.15896e-07
-4.40295e-07
-2.66501e-07
-3.69413e-07
8.35833e-08
-3.07041e-07
4.19787e-07
-2.53313e-07
-2.08093e-07
-1.6369e-06
2.69504e-12
-1.62214e-06
2.73766e-12
-1.49349e-06
2.7022e-12
-1.27311e-06
2.76e-12
-9.87043e-07
2.88202e-12
-6.59474e-07
3.05216e-12
-3.11792e-07
3.25313e-12
3.78447e-08
3.46234e-12
3.74835e-07
3.64837e-12
3.77195e-12
-1.6369e-06
9.114e-07
-1.62214e-06
8.1125e-07
-1.49349e-06
7.02892e-07
-1.27311e-06
6.06507e-07
-9.87043e-07
5.19353e-07
-6.59474e-07
4.40301e-07
-3.11792e-07
3.6942e-07
3.78448e-08
3.07047e-07
3.74835e-07
2.5332e-07
2.08101e-07
-1.60946e-06
1.83277e-06
-1.59367e-06
1.6248e-06
-1.46112e-06
1.40419e-06
-1.23631e-06
1.20979e-06
-9.46359e-07
1.03495e-06
-6.15895e-07
8.76801e-07
-2.665e-07
7.35309e-07
8.35837e-08
6.11076e-07
4.19787e-07
5.04286e-07
4.1456e-07
-1.55376e-06
2.77326e-06
-1.53495e-06
2.44243e-06
-1.39385e-06
2.10201e-06
-1.15981e-06
1.80665e-06
-8.62043e-07
1.54323e-06
-5.25892e-07
1.30598e-06
-1.73296e-07
1.09446e-06
1.77348e-07
9.09445e-07
5.11552e-07
7.50987e-07
6.18231e-07
-1.46891e-06
3.74085e-06
-1.44319e-06
3.26506e-06
-1.28703e-06
2.79353e-06
-1.03811e-06
2.39373e-06
-7.28372e-07
2.04093e-06
-3.83873e-07
1.72471e-06
-2.69806e-08
1.44418e-06
3.23686e-07
1.2002e-06
6.53813e-07
9.92357e-07
8.18929e-07
-1.35729e-06
4.7416e-06
-1.31565e-06
4.09019e-06
-1.13412e-06
3.47358e-06
-8.63356e-07
2.96738e-06
-5.37125e-07
2.525e-06
-1.81605e-07
2.13014e-06
1.80233e-07
1.78226e-06
5.29427e-07
1.48225e-06
8.52045e-07
1.22856e-06
1.01793e-06
-1.22347e-06
5.77259e-06
-1.146e-06
4.90733e-06
-9.2672e-07
4.13693e-06
-6.26874e-07
3.52483e-06
-2.78543e-07
2.99177e-06
9.16196e-08
2.51848e-06
4.58956e-07
2.10636e-06
8.03968e-07
1.75537e-06
1.11368e-06
1.46136e-06
1.21849e-06
-1.04933e-06
6.84137e-06
-9.40115e-07
5.73468e-06
-6.73648e-07
4.78379e-06
-3.2958e-07
4.0563e-06
5.5957e-08
3.42795e-06
4.5021e-07
2.87938e-06
8.25033e-07
2.41172e-06
1.16157e-06
2.01991e-06
1.44991e-06
1.69466e-06
1.42663e-06
-9.44074e-07
8.29755e-06
-9.00478e-07
6.69114e-06
-4.77737e-07
5.31727e-06
1.14654e-09
4.47626e-06
4.80904e-07
3.77652e-06
9.25476e-07
3.18329e-06
1.31188e-06
2.68891e-06
1.63116e-06
2.27831e-06
1.8832e-06
1.9368e-06
1.65302e-06
-2.71692e-06
1.21444e-05
-1.80325e-06
6.87354e-06
-5.28775e-07
5.05487e-06
3.81168e-07
4.48878e-06
1.08202e-06
3.90366e-06
1.61337e-06
3.38283e-06
2.00299e-06
2.93352e-06
2.27844e-06
2.54393e-06
2.46248e-06
2.20679e-06
1.91709e-06
-9.31739e-06
-2.94066e-06
-2.87301e-07
1.26985e-06
2.17461e-06
2.6965e-06
2.98572e-06
3.12632e-06
3.1673e-06
)
;

boundaryField
{
    leftWall
    {
        type            calculated;
        value           nonuniform List<scalar> 
20
(
1.11931e-05
2.83762e-10
4.86381e-07
9.07695e-07
1.0789e-06
1.21702e-06
1.34401e-06
1.4435e-06
1.51019e-06
1.54353e-06
1.54353e-06
1.51019e-06
1.4435e-06
1.34401e-06
1.21702e-06
1.0789e-06
9.07693e-07
4.86379e-07
2.82057e-10
1.11931e-05
)
;
    }
    rightWall
    {
        type            calculated;
        value           nonuniform List<scalar> 0();
    }
    topWall
    {
        type            calculated;
        value           nonuniform List<scalar> 10(1.15135e-05 1.75382e-06 3.47395e-06 3.85266e-06 3.7884e-06 3.53053e-06 3.20427e-06 2.86466e-06 2.54015e-06 2.24413e-06);
    }
    bottomWall
    {
        type            calculated;
        value           nonuniform List<scalar> 10(1.15135e-05 1.75382e-06 3.47395e-06 3.85266e-06 3.7884e-06 3.53053e-06 3.20427e-06 2.86466e-06 2.54015e-06 2.24413e-06);
    }
    frontAndBackPlanes
    {
        type            empty;
    }
    procBoundary1to0
    {
        type            processor;
        value           nonuniform List<scalar> 
20
(
3.1395e-06
2.57334e-06
2.07255e-06
1.6868e-06
1.38104e-06
1.13916e-06
9.53453e-07
8.18788e-07
7.3126e-07
6.88184e-07
6.88184e-07
7.31261e-07
8.18788e-07
9.53453e-07
1.13916e-06
1.38104e-06
1.6868e-06
2.07255e-06
2.57334e-06
3.1395e-06
)
;
    }
}


// ************************************************************************* //
