/*--------------------------------*- C++ -*----------------------------------*\
| =========                 |                                                 |
| \\      /  F ield         | OpenFOAM: The Open Source CFD Toolbox           |
|  \\    /   O peration     | Version:  2506                                  |
|   \\  /    A nd           | Website:  www.openfoam.com                      |
|    \\/     M anipulation  |                                                 |
\*---------------------------------------------------------------------------*/
FoamFile
{
    version     2.0;
    format      ascii;
    arch        "LSB;label=32;scalar=64";
    class       volScalarField;
    location    "1.557521";
    object      rho;
}
// * * * * * * * * * * * * * * * * * * * * * * * * * * * * * * * * * * * * * //

dimensions      [1 -3 0 0 0 0 0];

internalField   nonuniform List<scalar> 
200
(
997.751
1000.05
1000.59
1000.83
1000.98
1001.08
1001.16
1001.21
1001.25
1001.28
998.498
999.93
1000.42
1000.69
1000.87
1001
1001.09
1001.16
1001.21
1001.25
998.734
999.938
1000.38
1000.64
1000.82
1000.95
1001.05
1001.12
1001.18
1001.22
998.822
999.951
1000.36
1000.61
1000.79
1000.92
1001.02
1001.1
1001.16
1001.21
998.865
999.96
1000.35
1000.6
1000.77
1000.9
1001
1001.08
1001.14
1001.19
998.891
999.965
1000.35
1000.59
1000.76
1000.89
1000.99
1001.07
1001.13
1001.18
998.907
999.968
1000.35
1000.58
1000.75
1000.87
1000.98
1001.06
1001.12
1001.17
998.918
999.97
1000.34
1000.57
1000.74
1000.87
1000.97
1001.05
1001.12
1001.17
998.924
999.971
1000.34
1000.57
1000.73
1000.86
1000.96
1001.05
1001.11
1001.16
998.928
999.971
1000.34
1000.57
1000.73
1000.86
1000.96
1001.04
1001.11
1001.16
998.928
999.971
1000.34
1000.57
1000.73
1000.86
1000.96
1001.04
1001.11
1001.16
998.924
999.971
1000.34
1000.57
1000.73
1000.86
1000.96
1001.05
1001.11
1001.16
998.918
999.97
1000.34
1000.57
1000.74
1000.87
1000.97
1001.05
1001.12
1001.17
998.907
999.968
1000.35
1000.58
1000.75
1000.87
1000.98
1001.06
1001.12
1001.17
998.891
999.965
1000.35
1000.59
1000.76
1000.89
1000.99
1001.07
1001.13
1001.18
998.865
999.96
1000.35
1000.6
1000.77
1000.9
1001
1001.08
1001.14
1001.19
998.822
999.951
1000.36
1000.61
1000.79
1000.92
1001.02
1001.1
1001.16
1001.21
998.734
999.938
1000.38
1000.64
1000.82
1000.95
1001.05
1001.12
1001.18
1001.22
998.498
999.93
1000.42
1000.69
1000.87
1001
1001.09
1001.16
1001.21
1001.25
997.751
1000.05
1000.59
1000.83
1000.98
1001.08
1001.16
1001.21
1001.25
1001.28
)
;

boundaryField
{
    leftWall
    {
        type            calculated;
        value           uniform 973.493;
    }
    rightWall
    {
        type            calculated;
        value           nonuniform List<scalar> 0();
    }
    topWall
    {
        type            calculated;
        value           uniform 1001.36;
    }
    bottomWall
    {
        type            calculated;
        value           uniform 1001.36;
    }
    frontAndBackPlanes
    {
        type            empty;
    }
    procBoundary1to0
    {
        type            processor;
        value           nonuniform List<scalar> 
20
(
1001.3
1001.27
1001.26
1001.24
1001.23
1001.22
1001.22
1001.21
1001.21
1001.21
1001.21
1001.21
1001.21
1001.22
1001.22
1001.23
1001.24
1001.26
1001.27
1001.3
)
;
    }
}


// ************************************************************************* //
