/*--------------------------------*- C++ -*----------------------------------*\
| =========                 |                                                 |
| \\      /  F ield         | OpenFOAM: The Open Source CFD Toolbox           |
|  \\    /   O peration     | Version:  2506                                  |
|   \\  /    A nd           | Website:  www.openfoam.com                      |
|    \\/     M anipulation  |                                                 |
\*---------------------------------------------------------------------------*/
FoamFile
{
    version     2.0;
    format      ascii;
    arch        "LSB;label=32;scalar=64";
    class       volScalarField;
    location    "1.557521";
    object      T;
}
// * * * * * * * * * * * * * * * * * * * * * * * * * * * * * * * * * * * * * //

dimensions      [0 0 0 1 0 0 0];

internalField   nonuniform List<scalar> 
200
(
287.437
278.285
276.137
275.156
274.548
274.13
273.83
273.611
273.449
273.329
284.486
278.776
276.815
275.71
274.988
274.48
274.109
273.832
273.624
273.466
283.553
278.744
276.98
275.921
275.192
274.661
274.263
273.961
273.73
273.552
283.204
278.693
277.041
276.031
275.315
274.781
274.372
274.057
273.811
273.62
283.031
278.658
277.071
276.096
275.397
274.866
274.454
274.13
273.876
273.675
282.929
278.637
277.089
276.139
275.453
274.927
274.514
274.187
273.927
273.72
282.864
278.625
277.101
276.168
275.492
274.971
274.559
274.229
273.965
273.754
282.821
278.618
277.11
276.187
275.518
275.001
274.59
274.26
273.994
273.78
282.794
278.613
277.115
276.199
275.535
275.02
274.61
274.279
274.012
273.796
282.782
278.612
277.118
276.205
275.543
275.029
274.619
274.289
274.021
273.804
282.782
278.612
277.118
276.205
275.543
275.029
274.619
274.289
274.021
273.804
282.794
278.613
277.115
276.199
275.535
275.02
274.61
274.279
274.012
273.796
282.821
278.618
277.11
276.187
275.518
275.001
274.59
274.26
273.994
273.78
282.864
278.625
277.101
276.168
275.492
274.971
274.559
274.229
273.965
273.754
282.929
278.637
277.089
276.139
275.453
274.927
274.514
274.187
273.926
273.72
283.031
278.658
277.071
276.096
275.397
274.866
274.454
274.13
273.876
273.675
283.204
278.693
277.041
276.031
275.315
274.781
274.372
274.057
273.811
273.62
283.553
278.744
276.98
275.921
275.192
274.661
274.263
273.961
273.73
273.552
284.486
278.776
276.815
275.71
274.988
274.48
274.109
273.832
273.624
273.466
287.437
278.285
276.137
275.156
274.548
274.13
273.83
273.611
273.449
273.329
)
;

boundaryField
{
    leftWall
    {
        type            fixedValue;
        value           uniform 373;
    }
    rightWall
    {
        type            fixedValue;
        value           nonuniform List<scalar> 0();
    }
    topWall
    {
        type            fixedValue;
        value           uniform 273;
    }
    bottomWall
    {
        type            fixedValue;
        value           uniform 273;
    }
    frontAndBackPlanes
    {
        type            empty;
    }
    procBoundary1to0
    {
        type            processor;
        value           nonuniform List<scalar> 
20
(
273.24
273.347
273.416
273.472
273.518
273.556
273.586
273.608
273.623
273.63
273.63
273.623
273.608
273.586
273.556
273.518
273.472
273.416
273.347
273.24
)
;
    }
}


// ************************************************************************* //
