/*--------------------------------*- C++ -*----------------------------------*\
| =========                 |                                                 |
| \\      /  F ield         | OpenFOAM: The Open Source CFD Toolbox           |
|  \\    /   O peration     | Version:  2506                                  |
|   \\  /    A nd           | Website:  www.openfoam.com                      |
|    \\/     M anipulation  |                                                 |
\*---------------------------------------------------------------------------*/
FoamFile
{
    version     2.0;
    format      ascii;
    arch        "LSB;label=32;scalar=64";
    class       volVectorField;
    location    "1.557521";
    object      U;
}
// * * * * * * * * * * * * * * * * * * * * * * * * * * * * * * * * * * * * * //

dimensions      [0 1 -1 0 0 0 0];

internalField   nonuniform List<vector> 
200
(
(-0.000242573 -0.000271579 0)
(-1.06744e-05 -9.17947e-05 0)
(-1.09672e-05 -7.01621e-05 0)
(4.7955e-06 -6.4554e-05 0)
(1.43615e-05 -5.7926e-05 0)
(1.98841e-05 -5.11873e-05 0)
(2.29785e-05 -4.4947e-05 0)
(2.46135e-05 -3.93247e-05 0)
(2.52864e-05 -3.43571e-05 0)
(2.53007e-05 -3.00385e-05 0)
(-4.57582e-05 -4.50099e-05 0)
(-1.41132e-05 -5.16695e-05 0)
(-8.428e-06 -4.31942e-05 0)
(-3.30677e-07 -3.74414e-05 0)
(6.19319e-06 -3.18773e-05 0)
(1.10783e-05 -2.70485e-05 0)
(1.46884e-05 -2.30052e-05 0)
(1.72965e-05 -1.96253e-05 0)
(1.90953e-05 -1.67905e-05 0)
(2.02426e-05 -1.4414e-05 0)
(-1.75198e-05 -5.72306e-05 0)
(-7.48421e-06 -4.86254e-05 0)
(-5.57257e-06 -4.00343e-05 0)
(-1.88472e-06 -3.377e-05 0)
(2.00337e-06 -2.84814e-05 0)
(5.73703e-06 -2.39313e-05 0)
(9.0714e-06 -2.00916e-05 0)
(1.18928e-05 -1.68916e-05 0)
(1.41686e-05 -1.4239e-05 0)
(1.59195e-05 -1.20499e-05 0)
(-1.89887e-05 -5.10007e-05 0)
(-8.23688e-06 -4.28732e-05 0)
(-6.42715e-06 -3.57085e-05 0)
(-4.03168e-06 -3.0268e-05 0)
(-1.12305e-06 -2.56202e-05 0)
(2.04794e-06 -2.15368e-05 0)
(5.1626e-06 -1.80135e-05 0)
(8.02815e-06 -1.50349e-05 0)
(1.05347e-05 -1.25517e-05 0)
(1.26334e-05 -1.05048e-05 0)
(-2.12271e-05 -4.21824e-05 0)
(-9.87654e-06 -3.60854e-05 0)
(-8.18904e-06 -3.0512e-05 0)
(-6.23726e-06 -2.60263e-05 0)
(-3.68447e-06 -2.21193e-05 0)
(-7.60067e-07 -1.86397e-05 0)
(2.23258e-06 -1.55884e-05 0)
(5.10824e-06 -1.29709e-05 0)
(7.74166e-06 -1.07672e-05 0)
(1.0055e-05 -8.94232e-06 0)
(-2.2956e-05 -3.38613e-05 0)
(-1.11634e-05 -2.94009e-05 0)
(-9.69228e-06 -2.50843e-05 0)
(-8.02095e-06 -2.147e-05 0)
(-5.68014e-06 -1.82901e-05 0)
(-2.90467e-06 -1.54437e-05 0)
(6.95459e-09 -1.29253e-05 0)
(2.87883e-06 -1.07425e-05 0)
(5.58399e-06 -8.88871e-06 0)
(8.03234e-06 -7.34528e-06 0)
(-2.44756e-05 -2.60109e-05 0)
(-1.21409e-05 -2.28127e-05 0)
(-1.08148e-05 -1.9585e-05 0)
(-9.33781e-06 -1.68114e-05 0)
(-7.15377e-06 -1.43483e-05 0)
(-4.48959e-06 -1.21344e-05 0)
(-1.64243e-06 -1.01647e-05 0)
(1.21601e-06 -8.44555e-06 0)
(3.95881e-06 -6.9762e-06 0)
(6.48989e-06 -5.74714e-06 0)
(-2.56628e-05 -1.83983e-05 0)
(-1.28535e-05 -1.62582e-05 0)
(-1.16052e-05 -1.40265e-05 0)
(-1.02542e-05 -1.20727e-05 0)
(-8.18131e-06 -1.03214e-05 0)
(-5.59949e-06 -8.74015e-06 0)
(-2.80331e-06 -7.32735e-06 0)
(3.80416e-08 -6.08853e-06 0)
(2.79801e-06 -5.02499e-06 0)
(5.37735e-06 -4.13228e-06 0)
(-2.64525e-05 -1.09606e-05 0)
(-1.33131e-05 -9.7365e-06 0)
(-1.21049e-05 -8.42885e-06 0)
(-1.08297e-05 -7.26959e-06 0)
(-8.82798e-06 -6.22305e-06 0)
(-6.30109e-06 -5.27459e-06 0)
(-3.54075e-06 -4.42468e-06 0)
(-7.14378e-07 -3.67724e-06 0)
(2.05186e-06 -3.03374e-06 0)
(4.65704e-06 -2.49236e-06 0)
(-2.68442e-05 -3.63997e-06 0)
(-1.3537e-05 -3.24211e-06 0)
(-1.23458e-05 -2.81158e-06 0)
(-1.11063e-05 -2.42749e-06 0)
(-9.13945e-06 -2.07944e-06 0)
(-6.64018e-06 -1.76336e-06 0)
(-3.89843e-06 -1.47971e-06 0)
(-1.08068e-06 -1.22989e-06 0)
(1.68714e-06 -1.01452e-06 0)
(4.30338e-06 -8.33117e-07 0)
(-2.68442e-05 3.64001e-06 0)
(-1.3537e-05 3.24216e-06 0)
(-1.23458e-05 2.81163e-06 0)
(-1.11063e-05 2.42753e-06 0)
(-9.13945e-06 2.07948e-06 0)
(-6.64018e-06 1.76341e-06 0)
(-3.89843e-06 1.47976e-06 0)
(-1.08068e-06 1.22995e-06 0)
(1.68714e-06 1.01458e-06 0)
(4.30338e-06 8.33177e-07 0)
(-2.64525e-05 1.09606e-05 0)
(-1.33131e-05 9.73655e-06 0)
(-1.21049e-05 8.4289e-06 0)
(-1.08297e-05 7.26963e-06 0)
(-8.82797e-06 6.22309e-06 0)
(-6.30109e-06 5.27464e-06 0)
(-3.54074e-06 4.42473e-06 0)
(-7.14373e-07 3.6773e-06 0)
(2.05186e-06 3.03379e-06 0)
(4.65704e-06 2.49242e-06 0)
(-2.56628e-05 1.83983e-05 0)
(-1.28535e-05 1.62582e-05 0)
(-1.16052e-05 1.40265e-05 0)
(-1.02542e-05 1.20727e-05 0)
(-8.1813e-06 1.03214e-05 0)
(-5.59948e-06 8.7402e-06 0)
(-2.8033e-06 7.32739e-06 0)
(3.80489e-08 6.08858e-06 0)
(2.79802e-06 5.02504e-06 0)
(5.37735e-06 4.13234e-06 0)
(-2.44756e-05 2.6011e-05 0)
(-1.21409e-05 2.28128e-05 0)
(-1.08148e-05 1.95851e-05 0)
(-9.33779e-06 1.68114e-05 0)
(-7.15375e-06 1.43483e-05 0)
(-4.48958e-06 1.21345e-05 0)
(-1.64242e-06 1.01647e-05 0)
(1.21602e-06 8.4456e-06 0)
(3.95882e-06 6.97624e-06 0)
(6.48989e-06 5.74719e-06 0)
(-2.2956e-05 3.38613e-05 0)
(-1.11634e-05 2.94009e-05 0)
(-9.69226e-06 2.50843e-05 0)
(-8.02093e-06 2.14701e-05 0)
(-5.68012e-06 1.82901e-05 0)
(-2.90465e-06 1.54437e-05 0)
(6.97018e-09 1.29253e-05 0)
(2.87884e-06 1.07425e-05 0)
(5.584e-06 8.88875e-06 0)
(8.03234e-06 7.34532e-06 0)
(-2.1227e-05 4.21824e-05 0)
(-9.87652e-06 3.60855e-05 0)
(-8.18902e-06 3.05121e-05 0)
(-6.23723e-06 2.60263e-05 0)
(-3.68444e-06 2.21193e-05 0)
(-7.60046e-07 1.86397e-05 0)
(2.2326e-06 1.55884e-05 0)
(5.10825e-06 1.29709e-05 0)
(7.74167e-06 1.07672e-05 0)
(1.00551e-05 8.94235e-06 0)
(-1.89887e-05 5.10007e-05 0)
(-8.23685e-06 4.28732e-05 0)
(-6.42713e-06 3.57085e-05 0)
(-4.03165e-06 3.0268e-05 0)
(-1.12303e-06 2.56202e-05 0)
(2.04796e-06 2.15369e-05 0)
(5.16262e-06 1.80136e-05 0)
(8.02817e-06 1.50349e-05 0)
(1.05347e-05 1.25518e-05 0)
(1.26334e-05 1.05049e-05 0)
(-1.75197e-05 5.72306e-05 0)
(-7.48419e-06 4.86254e-05 0)
(-5.57254e-06 4.00343e-05 0)
(-1.8847e-06 3.377e-05 0)
(2.0034e-06 2.84814e-05 0)
(5.73706e-06 2.39313e-05 0)
(9.07143e-06 2.00916e-05 0)
(1.18929e-05 1.68916e-05 0)
(1.41686e-05 1.4239e-05 0)
(1.59195e-05 1.20499e-05 0)
(-4.57581e-05 4.50099e-05 0)
(-1.41131e-05 5.16695e-05 0)
(-8.42798e-06 4.31942e-05 0)
(-3.3065e-07 3.74414e-05 0)
(6.19322e-06 3.18773e-05 0)
(1.10783e-05 2.70486e-05 0)
(1.46884e-05 2.30052e-05 0)
(1.72965e-05 1.96253e-05 0)
(1.90953e-05 1.67905e-05 0)
(2.02426e-05 1.4414e-05 0)
(-0.000242573 0.000271579 0)
(-1.06743e-05 9.17946e-05 0)
(-1.09672e-05 7.01621e-05 0)
(4.79553e-06 6.4554e-05 0)
(1.43615e-05 5.7926e-05 0)
(1.98841e-05 5.11873e-05 0)
(2.29785e-05 4.4947e-05 0)
(2.46136e-05 3.93247e-05 0)
(2.52864e-05 3.43571e-05 0)
(2.53007e-05 3.00385e-05 0)
)
;

boundaryField
{
    leftWall
    {
        type            noSlip;
    }
    rightWall
    {
        type            noSlip;
    }
    topWall
    {
        type            noSlip;
    }
    bottomWall
    {
        type            noSlip;
    }
    frontAndBackPlanes
    {
        type            empty;
    }
    procBoundary1to0
    {
        type            processor;
        value           nonuniform List<vector> 
20
(
(2.48575e-05 -2.6334e-05 0)
(2.087e-05 -1.24296e-05 0)
(1.71945e-05 -1.02539e-05 0)
(1.43193e-05 -8.83704e-06 0)
(1.20129e-05 -7.45671e-06 0)
(1.01711e-05 -6.08689e-06 0)
(8.7463e-06 -4.74298e-06 0)
(7.70704e-06 -3.40154e-06 0)
(7.0287e-06 -2.04859e-06 0)
(6.69401e-06 -6.84317e-07 0)
(6.69401e-06 6.84377e-07 0)
(7.0287e-06 2.04865e-06 0)
(7.70704e-06 3.4016e-06 0)
(8.7463e-06 4.74303e-06 0)
(1.01711e-05 6.08693e-06 0)
(1.20129e-05 7.45674e-06 0)
(1.43193e-05 8.83706e-06 0)
(1.71945e-05 1.02539e-05 0)
(2.087e-05 1.24296e-05 0)
(2.48575e-05 2.6334e-05 0)
)
;
    }
}


// ************************************************************************* //
