/*--------------------------------*- C++ -*----------------------------------*\
| =========                 |                                                 |
| \\      /  F ield         | OpenFOAM: The Open Source CFD Toolbox           |
|  \\    /   O peration     | Version:  2506                                  |
|   \\  /    A nd           | Website:  www.openfoam.com                      |
|    \\/     M anipulation  |                                                 |
\*---------------------------------------------------------------------------*/
FoamFile
{
    version     2.0;
    format      ascii;
    arch        "LSB;label=32;scalar=64";
    class       volScalarField;
    location    "0.446496";
    object      alphat;
}
// * * * * * * * * * * * * * * * * * * * * * * * * * * * * * * * * * * * * * //

dimensions      [1 -1 -1 0 0 0 0];

internalField   nonuniform List<scalar> 
200
(
0.506512
0.505874
0.504266
0.500885
0.49419
0.481529
0.458767
0.4195
0.349421
0.199758
5.16295
5.15472
5.13449
5.09344
5.01484
4.86878
4.60068
4.09444
3.01198
0.349422
8.17271
8.15603
8.1153
8.03331
7.87721
7.58759
7.0552
6.06082
4.09445
0.419501
9.92353
9.89932
9.84062
9.72358
9.50333
9.10017
8.37253
7.05521
4.60068
0.458768
10.9575
10.9272
10.854
10.7097
10.4413
9.95735
9.10017
7.5876
4.86879
0.48153
11.5634
11.5284
11.4446
11.2805
10.9788
10.4413
9.50334
7.87722
5.01484
0.494189
11.9106
11.8724
11.7813
11.604
11.2805
10.7097
9.72359
8.03331
5.09344
0.500883
12.103
12.0627
11.9668
11.7813
11.4446
10.8541
9.84063
8.1153
5.13449
0.504262
12.2029
12.1613
12.0627
11.8725
11.5284
10.9272
9.89934
8.15603
5.15471
0.505868
12.2451
12.203
12.1031
11.9108
11.5635
10.9576
9.92357
8.17271
5.16293
0.506504
12.2451
12.203
12.1031
11.9108
11.5635
10.9576
9.92357
8.17271
5.16293
0.506504
12.2029
12.1613
12.0627
11.8725
11.5284
10.9272
9.89934
8.15603
5.15471
0.505868
12.103
12.0627
11.9668
11.7813
11.4446
10.8541
9.84063
8.1153
5.13449
0.504262
11.9106
11.8724
11.7813
11.604
11.2805
10.7097
9.72359
8.03331
5.09344
0.500883
11.5634
11.5284
11.4446
11.2805
10.9788
10.4413
9.50334
7.87722
5.01484
0.494189
10.9575
10.9272
10.854
10.7097
10.4413
9.95735
9.10017
7.5876
4.86879
0.48153
9.92352
9.89932
9.84062
9.72358
9.50333
9.10017
8.37253
7.05521
4.60068
0.458768
8.1727
8.15603
8.1153
8.03331
7.87721
7.58759
7.0552
6.06082
4.09445
0.419501
5.16295
5.15472
5.13449
5.09344
5.01484
4.86878
4.60068
4.09444
3.01198
0.349422
0.506513
0.505875
0.504266
0.500885
0.49419
0.481529
0.458767
0.4195
0.349421
0.199758
)
;

boundaryField
{
    leftWall
    {
        type            compressible::alphatWallFunction;
        value           nonuniform List<scalar> 0();
    }
    rightWall
    {
        type            compressible::alphatWallFunction;
        value           nonuniform List<scalar> 
20
(
0.0566522
0.0772443
0.0853145
0.088896
0.0906046
0.0914288
0.091823
0.0920084
0.0920924
0.0921247
0.0921247
0.0920924
0.0920084
0.091823
0.0914288
0.0906046
0.088896
0.0853145
0.0772443
0.0566522
)
;
    }
    topWall
    {
        type            compressible::alphatWallFunction;
        value           nonuniform List<scalar> 10(0.0921263 0.0920936 0.0920092 0.0918235 0.0914291 0.0906047 0.088896 0.0853144 0.0772442 0.0566522);
    }
    bottomWall
    {
        type            compressible::alphatWallFunction;
        value           nonuniform List<scalar> 10(0.0921263 0.0920936 0.0920092 0.0918235 0.0914291 0.0906047 0.088896 0.0853144 0.0772442 0.0566522);
    }
    frontAndBackPlanes
    {
        type            empty;
    }
    procBoundary0to1
    {
        type            processor;
        value           nonuniform List<scalar> 
20
(
0.506514
5.16295
8.17268
9.92348
10.9574
11.5633
11.9105
12.1029
12.2028
12.245
12.245
12.2028
12.1029
11.9105
11.5633
10.9574
9.92348
8.17268
5.16295
0.506514
)
;
    }
}


// ************************************************************************* //
