/*--------------------------------*- C++ -*----------------------------------*\
| =========                 |                                                 |
| \\      /  F ield         | OpenFOAM: The Open Source CFD Toolbox           |
|  \\    /   O peration     | Version:  2506                                  |
|   \\  /    A nd           | Website:  www.openfoam.com                      |
|    \\/     M anipulation  |                                                 |
\*---------------------------------------------------------------------------*/
FoamFile
{
    version     2.0;
    format      ascii;
    arch        "LSB;label=32;scalar=64";
    class       surfaceScalarField;
    location    "0.446496";
    object      phi;
}
// * * * * * * * * * * * * * * * * * * * * * * * * * * * * * * * * * * * * * //

dimensions      [1 0 -1 0 0 0 0];

oriented        oriented;

internalField   nonuniform List<scalar> 
370
(
2.34812e-06
-2.78598e-06
2.0906e-06
-2.4338e-06
1.86265e-06
-2.11195e-06
1.6609e-06
-1.81972e-06
1.48101e-06
-1.55763e-06
1.31804e-06
-1.3272e-06
1.16862e-06
-1.13112e-06
1.0507e-06
-9.91293e-07
1.03554e-06
-9.91176e-07
-9.70383e-07
2.50295e-06
-2.47396e-06
2.25163e-06
-2.15884e-06
2.02305e-06
-1.87099e-06
1.81935e-06
-1.60958e-06
1.64073e-06
-1.37568e-06
1.48768e-06
-1.17245e-06
1.36516e-06
-1.00773e-06
1.27975e-06
-9.05454e-07
1.19007e-06
-9.01299e-07
-8.10858e-07
2.45902e-06
-2.17827e-06
2.23169e-06
-1.897e-06
2.02026e-06
-1.64124e-06
1.83023e-06
-1.4099e-06
1.66388e-06
-1.2043e-06
1.52234e-06
-1.0283e-06
1.40606e-06
-8.90117e-07
1.30757e-06
-8.06273e-07
1.19748e-06
-7.90879e-07
-7.20326e-07
2.48007e-06
-1.88769e-06
2.26756e-06
-1.64027e-06
2.06665e-06
-1.41659e-06
1.88485e-06
-1.21549e-06
1.72542e-06
-1.03822e-06
1.58916e-06
-8.88559e-07
1.47434e-06
-7.73483e-07
1.37341e-06
-7.04414e-07
1.27313e-06
-6.90125e-07
-6.4377e-07
2.54812e-06
-1.59372e-06
2.34241e-06
-1.3821e-06
2.14604e-06
-1.19181e-06
1.96755e-06
-1.02177e-06
1.81055e-06
-8.73129e-07
1.67541e-06
-7.49154e-07
1.55962e-06
-6.5545e-07
1.45668e-06
-6.00314e-07
1.35746e-06
-5.9032e-07
-5.58934e-07
2.64078e-06
-1.29153e-06
2.43603e-06
-1.11841e-06
2.23972e-06
-9.63335e-07
2.06082e-06
-8.25508e-07
1.90285e-06
-7.05886e-07
1.76575e-06
-6.07122e-07
1.64641e-06
-5.33515e-07
1.53856e-06
-4.91094e-07
1.43369e-06
-4.84762e-07
-4.63158e-07
2.73886e-06
-9.7953e-07
2.53161e-06
-8.47451e-07
2.33268e-06
-7.29425e-07
2.15108e-06
-6.2494e-07
1.99016e-06
-5.34762e-07
1.84936e-06
-4.60883e-07
1.72514e-06
-4.06407e-07
1.61112e-06
-3.75559e-07
1.49899e-06
-3.71856e-07
-3.57201e-07
2.82624e-06
-6.58563e-07
2.61523e-06
-5.69484e-07
2.41271e-06
-4.89979e-07
2.22766e-06
-4.19778e-07
2.06317e-06
-3.59425e-07
1.91835e-06
-3.10243e-07
1.78928e-06
-2.74245e-07
1.66947e-06
-2.54126e-07
1.55062e-06
-2.52167e-07
-2.42942e-07
2.89085e-06
-3.31003e-07
2.67647e-06
-2.8617e-07
2.47079e-06
-2.46174e-07
2.28275e-06
-2.1091e-07
2.11525e-06
-1.8066e-07
1.96714e-06
-1.56086e-07
1.83429e-06
-1.38177e-07
1.71012e-06
-1.28248e-07
1.58625e-06
-1.2742e-07
-1.22929e-07
2.92499e-06
3.01803e-12
2.70868e-06
2.57211e-12
2.5012e-06
2.01514e-12
2.31145e-06
1.46779e-12
2.14225e-06
9.84846e-13
1.99233e-06
5.93781e-13
1.85744e-06
3.0564e-13
1.73093e-06
1.23431e-13
1.60441e-06
2.59281e-14
-2.58146e-14
2.92499e-06
3.31009e-07
2.70868e-06
2.86175e-07
2.5012e-06
2.46178e-07
2.31145e-06
2.10912e-07
2.14225e-06
1.80662e-07
1.99233e-06
1.56087e-07
1.85744e-06
1.38177e-07
1.73093e-06
1.28248e-07
1.60441e-06
1.2742e-07
1.22929e-07
2.89085e-06
6.58568e-07
2.67647e-06
5.69488e-07
2.47079e-06
4.89983e-07
2.28275e-06
4.19781e-07
2.11525e-06
3.59426e-07
1.96714e-06
3.10244e-07
1.83429e-06
2.74245e-07
1.71012e-06
2.54126e-07
1.58625e-06
2.52167e-07
2.42942e-07
2.82624e-06
9.79534e-07
2.61523e-06
8.47454e-07
2.4127e-06
7.29428e-07
2.22766e-06
6.24942e-07
2.06317e-06
5.34764e-07
1.91834e-06
4.60883e-07
1.78927e-06
4.06407e-07
1.66947e-06
3.75559e-07
1.55062e-06
3.71856e-07
3.57201e-07
2.73886e-06
1.29154e-06
2.53161e-06
1.11841e-06
2.33267e-06
9.63336e-07
2.15108e-06
8.25509e-07
1.99016e-06
7.05887e-07
1.84936e-06
6.07122e-07
1.72514e-06
5.33515e-07
1.61112e-06
4.91094e-07
1.49899e-06
4.84762e-07
4.63158e-07
2.64078e-06
1.59372e-06
2.43602e-06
1.3821e-06
2.23972e-06
1.19181e-06
2.06081e-06
1.02177e-06
1.90285e-06
8.73129e-07
1.76575e-06
7.49154e-07
1.64641e-06
6.5545e-07
1.53855e-06
6.00314e-07
1.43369e-06
5.9032e-07
5.58934e-07
2.54811e-06
1.88769e-06
2.3424e-06
1.64026e-06
2.14603e-06
1.41659e-06
1.96755e-06
1.21548e-06
1.81054e-06
1.03822e-06
1.67541e-06
8.88558e-07
1.55961e-06
7.73483e-07
1.45668e-06
7.04413e-07
1.35746e-06
6.90125e-07
6.4377e-07
2.48006e-06
2.17826e-06
2.26756e-06
1.897e-06
2.06665e-06
1.64123e-06
1.88485e-06
1.4099e-06
1.72542e-06
1.20429e-06
1.58916e-06
1.0283e-06
1.47434e-06
8.90116e-07
1.37341e-06
8.06273e-07
1.27313e-06
7.90879e-07
7.20326e-07
2.45902e-06
2.47396e-06
2.23169e-06
2.15883e-06
2.02026e-06
1.87098e-06
1.83023e-06
1.60957e-06
1.66388e-06
1.37568e-06
1.52233e-06
1.17245e-06
1.40606e-06
1.00773e-06
1.30756e-06
9.05453e-07
1.19748e-06
9.01299e-07
8.10858e-07
2.50295e-06
2.78597e-06
2.25162e-06
2.43379e-06
2.02304e-06
2.11195e-06
1.81935e-06
1.81971e-06
1.64073e-06
1.55763e-06
1.48768e-06
1.3272e-06
1.36516e-06
1.13112e-06
1.27975e-06
9.91292e-07
1.19007e-06
9.91176e-07
9.70383e-07
2.34812e-06
2.09059e-06
1.86265e-06
1.6609e-06
1.48101e-06
1.31803e-06
1.16862e-06
1.0507e-06
1.03554e-06
)
;

boundaryField
{
    leftWall
    {
        type            calculated;
        value           nonuniform List<scalar> 0();
    }
    rightWall
    {
        type            calculated;
        value           nonuniform List<scalar> 
20
(
1.00296e-06
1.03061e-06
1.10706e-06
1.19674e-06
1.27285e-06
1.33818e-06
1.39333e-06
1.43668e-06
1.46657e-06
1.48182e-06
1.48182e-06
1.46657e-06
1.43668e-06
1.39333e-06
1.33818e-06
1.27285e-06
1.19674e-06
1.10706e-06
1.03061e-06
1.00296e-06
)
;
    }
    topWall
    {
        type            calculated;
        value           nonuniform List<scalar> 10(3.09447e-06 2.70162e-06 2.34519e-06 2.02416e-06 1.73889e-06 1.49087e-06 1.28087e-06 1.10937e-06 1.0064e-06 1.00296e-06);
    }
    bottomWall
    {
        type            calculated;
        value           nonuniform List<scalar> 10(3.09446e-06 2.70161e-06 2.34518e-06 2.02415e-06 1.73888e-06 1.49086e-06 1.28087e-06 1.10937e-06 1.0064e-06 1.00296e-06);
    }
    frontAndBackPlanes
    {
        type            empty;
    }
    procBoundary0to1
    {
        type            processor;
        value           nonuniform List<scalar> 
20
(
-2.63665e-06
-2.77029e-06
-2.69047e-06
-2.68931e-06
-2.74659e-06
-2.83654e-06
-2.93655e-06
-3.02762e-06
-3.09565e-06
-3.13176e-06
-3.13176e-06
-3.09565e-06
-3.02762e-06
-2.93655e-06
-2.83654e-06
-2.74659e-06
-2.68931e-06
-2.69047e-06
-2.77029e-06
-2.63665e-06
)
;
    }
}


// ************************************************************************* //
