/*--------------------------------*- C++ -*----------------------------------*\
| =========                 |                                                 |
| \\      /  F ield         | OpenFOAM: The Open Source CFD Toolbox           |
|  \\    /   O peration     | Version:  2506                                  |
|   \\  /    A nd           | Website:  www.openfoam.com                      |
|    \\/     M anipulation  |                                                 |
\*---------------------------------------------------------------------------*/
FoamFile
{
    version     2.0;
    format      ascii;
    arch        "LSB;label=32;scalar=64";
    class       volScalarField;
    location    "0.446496";
    object      T;
}
// * * * * * * * * * * * * * * * * * * * * * * * * * * * * * * * * * * * * * //

dimensions      [0 0 0 1 0 0 0];

internalField   nonuniform List<scalar> 
200
(
273.004
273.002
273.001
273.001
273
273
273
273
273
273
273.009
273.005
273.002
273.001
273.001
273
273
273
273
273
273.014
273.007
273.004
273.002
273.001
273
273
273
273
273
273.017
273.009
273.005
273.002
273.001
273.001
273
273
273
273
273.02
273.011
273.006
273.003
273.002
273.001
273
273
273
273
273.022
273.012
273.006
273.003
273.002
273.001
273
273
273
273
273.024
273.013
273.007
273.004
273.002
273.001
273.001
273
273
273
273.025
273.013
273.007
273.004
273.002
273.001
273.001
273
273
273
273.026
273.014
273.007
273.004
273.002
273.001
273.001
273
273
273
273.026
273.014
273.008
273.004
273.002
273.001
273.001
273
273
273
273.026
273.014
273.008
273.004
273.002
273.001
273.001
273
273
273
273.026
273.014
273.007
273.004
273.002
273.001
273.001
273
273
273
273.025
273.013
273.007
273.004
273.002
273.001
273.001
273
273
273
273.024
273.013
273.007
273.004
273.002
273.001
273.001
273
273
273
273.022
273.012
273.006
273.003
273.002
273.001
273
273
273
273
273.02
273.011
273.006
273.003
273.002
273.001
273
273
273
273
273.017
273.009
273.005
273.002
273.001
273.001
273
273
273
273
273.014
273.007
273.004
273.002
273.001
273
273
273
273
273
273.009
273.005
273.002
273.001
273.001
273
273
273
273
273
273.004
273.002
273.001
273.001
273
273
273
273
273
273
)
;

boundaryField
{
    leftWall
    {
        type            fixedValue;
        value           nonuniform List<scalar> 0();
    }
    rightWall
    {
        type            fixedValue;
        value           uniform 273;
    }
    topWall
    {
        type            fixedValue;
        value           uniform 273;
    }
    bottomWall
    {
        type            fixedValue;
        value           uniform 273;
    }
    frontAndBackPlanes
    {
        type            empty;
    }
    procBoundary0to1
    {
        type            processor;
        value           nonuniform List<scalar> 
20
(
273.008
273.018
273.026
273.033
273.038
273.041
273.044
273.046
273.047
273.047
273.047
273.047
273.046
273.044
273.041
273.038
273.033
273.026
273.018
273.008
)
;
    }
}


// ************************************************************************* //
