/*--------------------------------*- C++ -*----------------------------------*\
| =========                 |                                                 |
| \\      /  F ield         | OpenFOAM: The Open Source CFD Toolbox           |
|  \\    /   O peration     | Version:  2506                                  |
|   \\  /    A nd           | Website:  www.openfoam.com                      |
|    \\/     M anipulation  |                                                 |
\*---------------------------------------------------------------------------*/
FoamFile
{
    version     2.0;
    format      ascii;
    arch        "LSB;label=32;scalar=64";
    class       volVectorField;
    location    "0.446496";
    object      U;
}
// * * * * * * * * * * * * * * * * * * * * * * * * * * * * * * * * * * * * * //

dimensions      [0 1 -1 0 0 0 0];

internalField   nonuniform List<vector> 
200
(
(1.9863e-05 -4.25229e-05 0)
(1.76792e-05 -3.69159e-05 0)
(1.57429e-05 -3.18509e-05 0)
(1.40324e-05 -2.72969e-05 0)
(1.25163e-05 -2.32431e-05 0)
(1.11619e-05 -1.96943e-05 0)
(9.92263e-06 -1.667e-05 0)
(8.74504e-06 -1.43827e-05 0)
(8.37438e-06 -1.37137e-05 0)
(1.30068e-05 -1.28587e-05 0)
(2.10399e-05 -2.13274e-05 0)
(1.89488e-05 -1.86405e-05 0)
(1.70249e-05 -1.61795e-05 0)
(1.52972e-05 -1.39403e-05 0)
(1.3773e-05 -1.19315e-05 0)
(1.24548e-05 -1.01768e-05 0)
(1.13238e-05 -8.73733e-06 0)
(1.03498e-05 -7.81987e-06 0)
(1.00694e-05 -7.7824e-06 0)
(1.49279e-05 -7.22584e-06 0)
(2.05751e-05 -1.8208e-05 0)
(1.87112e-05 -1.58779e-05 0)
(1.69436e-05 -1.37529e-05 0)
(1.53339e-05 -1.18258e-05 0)
(1.39111e-05 -1.01068e-05 0)
(1.26866e-05 -8.62595e-06 0)
(1.16256e-05 -7.44953e-06 0)
(1.0655e-05 -6.72741e-06 0)
(1.02864e-05 -6.62587e-06 0)
(1.54541e-05 -6.03236e-06 0)
(2.06735e-05 -1.61845e-05 0)
(1.895e-05 -1.4079e-05 0)
(1.72784e-05 -1.21702e-05 0)
(1.57406e-05 -1.04489e-05 0)
(1.43775e-05 -8.92572e-06 0)
(1.32023e-05 -7.63219e-06 0)
(1.21657e-05 -6.6291e-06 0)
(1.11889e-05 -6.02449e-06 0)
(1.08371e-05 -5.90647e-06 0)
(1.67023e-05 -5.47989e-06 0)
(2.1185e-05 -1.39443e-05 0)
(1.95272e-05 -1.2103e-05 0)
(1.78979e-05 -1.04435e-05 0)
(1.63899e-05 -8.95657e-06 0)
(1.50498e-05 -7.65197e-06 0)
(1.38893e-05 -6.55822e-06 0)
(1.28494e-05 -5.72547e-06 0)
(1.18494e-05 -5.23078e-06 0)
(1.15125e-05 -5.13503e-06 0)
(1.79897e-05 -4.83479e-06 0)
(2.19199e-05 -1.15543e-05 0)
(2.02743e-05 -1.00112e-05 0)
(1.86475e-05 -8.62686e-06 0)
(1.71375e-05 -7.39384e-06 0)
(1.57924e-05 -6.32051e-06 0)
(1.46209e-05 -5.43068e-06 0)
(1.35555e-05 -4.76369e-06 0)
(1.25117e-05 -4.37573e-06 0)
(1.21598e-05 -4.3121e-06 0)
(1.91424e-05 -4.10407e-06 0)
(2.27136e-05 -9.09203e-06 0)
(2.10488e-05 -7.86865e-06 0)
(1.94009e-05 -6.77456e-06 0)
(1.78696e-05 -5.80457e-06 0)
(1.65027e-05 -4.96565e-06 0)
(1.53054e-05 -4.27637e-06 0)
(1.42027e-05 -3.76612e-06 0)
(1.31063e-05 -3.47531e-06 0)
(1.27247e-05 -3.43729e-06 0)
(2.01241e-05 -3.29333e-06 0)
(2.34276e-05 -6.55917e-06 0)
(2.17321e-05 -5.67289e-06 0)
(2.00544e-05 -4.88158e-06 0)
(1.84951e-05 -4.18228e-06 0)
(1.71008e-05 -3.58032e-06 0)
(1.58738e-05 -3.08895e-06 0)
(1.47333e-05 -2.72848e-06 0)
(1.35877e-05 -2.52624e-06 0)
(1.31746e-05 -2.50515e-06 0)
(2.08971e-05 -2.40918e-06 0)
(2.3958e-05 -3.96301e-06 0)
(2.22346e-05 -3.42648e-06 0)
(2.05307e-05 -2.94777e-06 0)
(1.8947e-05 -2.52556e-06 0)
(1.75292e-05 -2.16321e-06 0)
(1.62775e-05 -1.86865e-06 0)
(1.51072e-05 -1.65382e-06 0)
(1.39243e-05 -1.53455e-06 0)
(1.34863e-05 -1.52425e-06 0)
(2.14292e-05 -1.46864e-06 0)
(2.42388e-05 -1.32566e-06 0)
(2.24995e-05 -1.14606e-06 0)
(2.07806e-05 -9.85858e-07 0)
(1.9183e-05 -8.44684e-07 0)
(1.77519e-05 -7.23703e-07 0)
(1.64864e-05 -6.25557e-07 0)
(1.52998e-05 -5.54175e-07 0)
(1.4097e-05 -5.14755e-07 0)
(1.36455e-05 -5.11712e-07 0)
(2.17001e-05 -4.93429e-07 0)
(2.42388e-05 1.32571e-06 0)
(2.24995e-05 1.1461e-06 0)
(2.07806e-05 9.8589e-07 0)
(1.9183e-05 8.44707e-07 0)
(1.77519e-05 7.23718e-07 0)
(1.64864e-05 6.25567e-07 0)
(1.52998e-05 5.5418e-07 0)
(1.4097e-05 5.14757e-07 0)
(1.36455e-05 5.11712e-07 0)
(2.17001e-05 4.93428e-07 0)
(2.3958e-05 3.96305e-06 0)
(2.22346e-05 3.42651e-06 0)
(2.05307e-05 2.9478e-06 0)
(1.8947e-05 2.52558e-06 0)
(1.75292e-05 2.16322e-06 0)
(1.62775e-05 1.86866e-06 0)
(1.51072e-05 1.65382e-06 0)
(1.39243e-05 1.53455e-06 0)
(1.34863e-05 1.52425e-06 0)
(2.14292e-05 1.46864e-06 0)
(2.34276e-05 6.55921e-06 0)
(2.1732e-05 5.67292e-06 0)
(2.00544e-05 4.8816e-06 0)
(1.84951e-05 4.1823e-06 0)
(1.71008e-05 3.58034e-06 0)
(1.58738e-05 3.08896e-06 0)
(1.47333e-05 2.72849e-06 0)
(1.35877e-05 2.52624e-06 0)
(1.31746e-05 2.50515e-06 0)
(2.08971e-05 2.40918e-06 0)
(2.27136e-05 9.09206e-06 0)
(2.10488e-05 7.86867e-06 0)
(1.94008e-05 6.77458e-06 0)
(1.78696e-05 5.80458e-06 0)
(1.65027e-05 4.96566e-06 0)
(1.53054e-05 4.27637e-06 0)
(1.42027e-05 3.76612e-06 0)
(1.31063e-05 3.47531e-06 0)
(1.27247e-05 3.43729e-06 0)
(2.01241e-05 3.29333e-06 0)
(2.19199e-05 1.15543e-05 0)
(2.02742e-05 1.00112e-05 0)
(1.86475e-05 8.62686e-06 0)
(1.71375e-05 7.39384e-06 0)
(1.57924e-05 6.32051e-06 0)
(1.46209e-05 5.43068e-06 0)
(1.35555e-05 4.76369e-06 0)
(1.25117e-05 4.37573e-06 0)
(1.21598e-05 4.3121e-06 0)
(1.91424e-05 4.10407e-06 0)
(2.1185e-05 1.39443e-05 0)
(1.95272e-05 1.2103e-05 0)
(1.78979e-05 1.04435e-05 0)
(1.63898e-05 8.95656e-06 0)
(1.50497e-05 7.65197e-06 0)
(1.38893e-05 6.55822e-06 0)
(1.28494e-05 5.72547e-06 0)
(1.18494e-05 5.23078e-06 0)
(1.15125e-05 5.13503e-06 0)
(1.79897e-05 4.83479e-06 0)
(2.06735e-05 1.61845e-05 0)
(1.895e-05 1.4079e-05 0)
(1.72784e-05 1.21702e-05 0)
(1.57406e-05 1.04489e-05 0)
(1.43775e-05 8.92571e-06 0)
(1.32023e-05 7.63218e-06 0)
(1.21657e-05 6.6291e-06 0)
(1.11889e-05 6.02449e-06 0)
(1.08371e-05 5.90647e-06 0)
(1.67023e-05 5.47989e-06 0)
(2.05751e-05 1.8208e-05 0)
(1.87112e-05 1.58779e-05 0)
(1.69436e-05 1.37529e-05 0)
(1.53339e-05 1.18258e-05 0)
(1.3911e-05 1.01068e-05 0)
(1.26866e-05 8.62594e-06 0)
(1.16256e-05 7.44952e-06 0)
(1.0655e-05 6.7274e-06 0)
(1.02864e-05 6.62587e-06 0)
(1.54541e-05 6.03236e-06 0)
(2.10398e-05 2.13274e-05 0)
(1.89488e-05 1.86405e-05 0)
(1.70249e-05 1.61795e-05 0)
(1.52972e-05 1.39403e-05 0)
(1.3773e-05 1.19314e-05 0)
(1.24548e-05 1.01768e-05 0)
(1.13238e-05 8.73732e-06 0)
(1.03498e-05 7.81987e-06 0)
(1.00694e-05 7.7824e-06 0)
(1.49279e-05 7.22584e-06 0)
(1.98629e-05 4.25228e-05 0)
(1.76792e-05 3.69158e-05 0)
(1.57429e-05 3.18508e-05 0)
(1.40323e-05 2.72969e-05 0)
(1.25163e-05 2.32431e-05 0)
(1.11619e-05 1.96943e-05 0)
(9.92262e-06 1.667e-05 0)
(8.74504e-06 1.43827e-05 0)
(8.37438e-06 1.37137e-05 0)
(1.30068e-05 1.28587e-05 0)
)
;

boundaryField
{
    leftWall
    {
        type            noSlip;
    }
    rightWall
    {
        type            noSlip;
    }
    topWall
    {
        type            noSlip;
    }
    bottomWall
    {
        type            noSlip;
    }
    frontAndBackPlanes
    {
        type            empty;
    }
    procBoundary0to1
    {
        type            processor;
        value           nonuniform List<vector> 
20
(
(2.22965e-05 -4.87222e-05 0)
(2.32194e-05 -2.42575e-05 0)
(2.24083e-05 -2.07694e-05 0)
(2.2293e-05 -1.8517e-05 0)
(2.26991e-05 -1.59965e-05 0)
(2.34036e-05 -1.32799e-05 0)
(2.42095e-05 -1.04613e-05 0)
(2.49521e-05 -7.55059e-06 0)
(2.55096e-05 -4.56259e-06 0)
(2.58061e-05 -1.52622e-06 0)
(2.58061e-05 1.52627e-06 0)
(2.55096e-05 4.56263e-06 0)
(2.49521e-05 7.55063e-06 0)
(2.42095e-05 1.04613e-05 0)
(2.34036e-05 1.32799e-05 0)
(2.26991e-05 1.59965e-05 0)
(2.2293e-05 1.8517e-05 0)
(2.24083e-05 2.07693e-05 0)
(2.32194e-05 2.42574e-05 0)
(2.22965e-05 4.87221e-05 0)
)
;
    }
}


// ************************************************************************* //
