/*--------------------------------*- C++ -*----------------------------------*\
| =========                 |                                                 |
| \\      /  F ield         | OpenFOAM: The Open Source CFD Toolbox           |
|  \\    /   O peration     | Version:  2506                                  |
|   \\  /    A nd           | Website:  www.openfoam.com                      |
|    \\/     M anipulation  |                                                 |
\*---------------------------------------------------------------------------*/
FoamFile
{
    version     2.0;
    format      ascii;
    arch        "LSB;label=32;scalar=64";
    class       volScalarField;
    location    "1.247934";
    object      alphat;
}
// * * * * * * * * * * * * * * * * * * * * * * * * * * * * * * * * * * * * * //

dimensions      [1 -1 -1 0 0 0 0];

internalField   nonuniform List<scalar> 
400
(
0.115001
0.206601
0.247443
0.272315
0.289749
0.302603
0.312115
0.318905
0.323296
0.325458
0.325462
0.32331
0.318929
0.31215
0.30265
0.289813
0.272399
0.247558
0.206753
0.115238
0.20632
1.78982
2.53878
2.94009
3.19416
3.36738
3.48796
3.57008
3.62146
3.64625
3.64631
3.62166
3.57043
3.48848
3.36809
3.19511
2.94132
2.54036
1.7917
0.206757
0.247037
2.53747
4.05174
4.9495
5.52837
5.9212
6.19211
6.37492
6.48845
6.54299
6.54315
6.48892
6.37573
6.19329
5.92279
5.53041
4.95203
4.05471
2.54039
0.247565
0.271832
2.9379
4.94822
6.23019
7.08474
7.67236
8.07927
8.35399
8.52448
8.60632
8.60656
8.5252
8.35521
8.08103
7.67468
7.08766
6.23367
4.95208
2.94138
0.272408
0.289215
3.19137
5.52606
7.08356
8.15017
8.89459
9.41408
9.76612
9.98497
10.0901
10.0904
9.98589
9.76768
9.4163
8.89749
8.15374
7.08772
5.53051
3.19519
0.289824
0.30203
3.36415
5.9181
7.67019
8.89353
9.75816
10.3662
10.7802
11.0382
11.1623
11.1626
11.0392
10.782
10.3688
9.76148
8.89757
7.67481
5.92294
3.36819
0.302662
0.311515
3.48441
6.1884
8.07631
9.41212
10.3653
11.04
11.5012
11.7894
11.9283
11.9287
11.7906
11.5032
11.0428
10.3689
9.41649
8.08125
6.1935
3.48861
0.312164
0.318285
3.5663
6.37074
8.35039
9.76342
10.7784
11.5004
11.9956
12.3057
12.4553
12.4557
12.307
11.9978
11.5034
10.7823
9.76802
8.35556
6.37602
3.5706
0.318946
0.322661
3.6175
6.48392
8.52039
9.98169
11.0358
11.7879
12.305
12.6293
12.7859
12.7863
12.6307
12.3073
11.7911
11.0398
9.98643
8.52569
6.4893
3.62186
0.32333
0.324813
3.64217
6.53821
8.60188
10.0864
11.1594
11.9262
12.454
12.7853
12.9453
12.9457
12.7867
12.4563
11.9294
11.1634
10.0912
8.60724
6.54365
3.64657
0.325486
0.324813
3.64217
6.53821
8.60188
10.0864
11.1594
11.9262
12.454
12.7853
12.9453
12.9457
12.7867
12.4563
11.9294
11.1634
10.0912
8.60724
6.54365
3.64657
0.325486
0.322661
3.6175
6.48392
8.52039
9.98169
11.0358
11.7879
12.305
12.6293
12.7859
12.7863
12.6307
12.3073
11.7911
11.0398
9.98643
8.52569
6.4893
3.62186
0.32333
0.318285
3.5663
6.37074
8.35039
9.76342
10.7784
11.5004
11.9956
12.3057
12.4553
12.4557
12.307
11.9978
11.5034
10.7823
9.76802
8.35556
6.37602
3.5706
0.318946
0.311515
3.48441
6.1884
8.0763
9.41212
10.3653
11.04
11.5012
11.7894
11.9283
11.9287
11.7906
11.5032
11.0428
10.3689
9.41649
8.08125
6.1935
3.48861
0.312164
0.30203
3.36415
5.9181
7.67019
8.89353
9.75816
10.3662
10.7802
11.0382
11.1623
11.1626
11.0393
10.782
10.3688
9.76148
8.89757
7.67481
5.92294
3.36819
0.302662
0.289215
3.19137
5.52606
7.08356
8.15017
8.89459
9.41408
9.76612
9.98497
10.0901
10.0904
9.98589
9.76768
9.4163
8.89749
8.15374
7.08772
5.53051
3.19519
0.289824
0.271832
2.9379
4.94822
6.23019
7.08474
7.67236
8.07927
8.35399
8.52448
8.60632
8.60656
8.5252
8.35521
8.08103
7.67468
7.08766
6.23367
4.95208
2.94138
0.272408
0.247037
2.53747
4.05174
4.9495
5.52837
5.9212
6.19211
6.37492
6.48845
6.54299
6.54315
6.48892
6.37573
6.19329
5.92279
5.53041
4.95203
4.05471
2.54039
0.247565
0.20632
1.78982
2.53878
2.94009
3.19416
3.36738
3.48796
3.57008
3.62146
3.64625
3.64631
3.62166
3.57043
3.48848
3.36809
3.19511
2.94132
2.54036
1.7917
0.206757
0.115001
0.206601
0.247443
0.272315
0.289749
0.302602
0.312115
0.318905
0.323296
0.325458
0.325462
0.32331
0.318929
0.31215
0.30265
0.289813
0.272399
0.247558
0.206753
0.115238
)
;

boundaryField
{
    leftWall
    {
        type            compressible::alphatWallFunction;
        value           nonuniform List<scalar> 
20
(
0.0227219
0.0358443
0.0413139
0.0443733
0.0463396
0.0476707
0.04858
0.0491852
0.0495557
0.0497316
0.0497316
0.0495557
0.0491852
0.04858
0.0476707
0.0463396
0.0443733
0.0413139
0.0358443
0.0227219
)
;
    }
    rightWall
    {
        type            compressible::alphatWallFunction;
        value           nonuniform List<scalar> 
20
(
0.0270219
0.0430787
0.0497431
0.0534623
0.0558501
0.0574653
0.0585683
0.0593021
0.0597512
0.0599645
0.0599645
0.0597512
0.0593021
0.0585683
0.0574653
0.0558501
0.0534623
0.0497431
0.0430787
0.0270219
)
;
    }
    topWall
    {
        type            compressible::alphatWallFunction;
        value           nonuniform List<scalar> 
20
(
0.0270482
0.0430923
0.0497493
0.0534661
0.0558522
0.0574664
0.0585686
0.059302
0.0597509
0.059964
0.0599639
0.0597505
0.0593012
0.0585674
0.0574645
0.0558492
0.0534616
0.0497425
0.0430784
0.0270219
)
;
    }
    bottomWall
    {
        type            compressible::alphatWallFunction;
        value           nonuniform List<scalar> 
20
(
0.0270482
0.0430923
0.0497493
0.0534661
0.0558522
0.0574664
0.0585686
0.059302
0.0597509
0.059964
0.0599639
0.0597505
0.0593012
0.0585674
0.0574645
0.0558492
0.0534616
0.0497425
0.0430784
0.0270219
)
;
    }
    frontAndBackPlanes
    {
        type            empty;
    }
}


// ************************************************************************* //
