/*--------------------------------*- C++ -*----------------------------------*\
| =========                 |                                                 |
| \\      /  F ield         | OpenFOAM: The Open Source CFD Toolbox           |
|  \\    /   O peration     | Version:  2506                                  |
|   \\  /    A nd           | Website:  www.openfoam.com                      |
|    \\/     M anipulation  |                                                 |
\*---------------------------------------------------------------------------*/
FoamFile
{
    version     2.0;
    format      ascii;
    arch        "LSB;label=32;scalar=64";
    class       volScalarField;
    location    "1.247934";
    object      epsilon;
}
// * * * * * * * * * * * * * * * * * * * * * * * * * * * * * * * * * * * * * //

dimensions      [0 2 -3 0 0 0 0];

internalField   nonuniform List<scalar> 
400
(
0.0181986
0.0752544
0.117328
0.145938
0.165939
0.179937
0.189548
0.195877
0.199691
0.201478
0.201477
0.199687
0.19587
0.189536
0.179919
0.165913
0.145903
0.117282
0.0751826
0.0181492
0.0753091
0.060315
0.0705215
0.0803302
0.0880706
0.0938245
0.0979282
0.100706
0.102415
0.103225
0.103225
0.102414
0.100706
0.0979265
0.0938209
0.0880637
0.080318
0.0705005
0.0602765
0.075184
0.117413
0.0705352
0.0712219
0.0758668
0.0805019
0.084328
0.0872271
0.0892676
0.0905543
0.091174
0.0911741
0.0905545
0.0892677
0.0872266
0.0843261
0.0804972
0.0758573
0.0712044
0.0705008
0.117285
0.146044
0.0803523
0.0758737
0.0777522
0.08072
0.0835269
0.0858093
0.087487
0.0885744
0.0891064
0.0891065
0.0885748
0.0874875
0.0858092
0.0835254
0.0807159
0.0777437
0.0758574
0.0803185
0.145907
0.166064
0.0880982
0.0805131
0.0807239
0.082656
0.0848138
0.0866991
0.0881432
0.0891034
0.0895798
0.0895801
0.0891039
0.0881439
0.0866992
0.0848127
0.0826524
0.080716
0.0804974
0.0880643
0.165918
0.180076
0.0938559
0.0843417
0.0835332
0.0848161
0.0865538
0.0881745
0.0894602
0.090333
0.0907711
0.0907714
0.0903336
0.0894609
0.0881749
0.0865529
0.0848128
0.0835256
0.0843264
0.0938217
0.179924
0.189698
0.0979619
0.0872422
0.0858168
0.0867025
0.0881757
0.0896251
0.0908056
0.0916193
0.0920312
0.0920315
0.09162
0.0908065
0.0896257
0.0881751
0.0866995
0.0858096
0.0872271
0.0979274
0.18954
0.196034
0.100741
0.0892833
0.0874951
0.0881473
0.0894619
0.0908061
0.0919203
0.0926962
0.0930912
0.0930915
0.092697
0.0919213
0.0908067
0.0894614
0.0881445
0.0874881
0.0892684
0.100707
0.195873
0.199853
0.10245
0.0905702
0.0885826
0.0891075
0.0903348
0.0916199
0.0926963
0.0934502
0.0938352
0.0938356
0.093451
0.0926973
0.0916206
0.0903344
0.0891048
0.0885757
0.0905554
0.102415
0.199689
0.201642
0.103262
0.09119
0.0891145
0.0895839
0.0907728
0.0920317
0.0930911
0.0938351
0.0942156
0.0942159
0.0938359
0.0930922
0.0920325
0.0907725
0.0895813
0.0891077
0.0911752
0.103226
0.201478
0.201642
0.103262
0.09119
0.0891145
0.0895839
0.0907728
0.0920317
0.0930911
0.0938351
0.0942155
0.0942159
0.0938359
0.0930922
0.0920325
0.0907725
0.0895813
0.0891077
0.0911752
0.103226
0.201478
0.199853
0.10245
0.0905702
0.0885826
0.0891075
0.0903348
0.0916199
0.0926963
0.0934502
0.0938352
0.0938356
0.093451
0.0926973
0.0916206
0.0903344
0.0891048
0.0885757
0.0905554
0.102415
0.199689
0.196034
0.100741
0.0892833
0.0874951
0.0881473
0.0894619
0.0908061
0.0919203
0.0926962
0.0930912
0.0930915
0.092697
0.0919213
0.0908067
0.0894614
0.0881444
0.0874881
0.0892684
0.100707
0.195873
0.189698
0.0979619
0.0872422
0.0858169
0.0867026
0.0881757
0.0896252
0.0908056
0.0916193
0.0920312
0.0920315
0.09162
0.0908065
0.0896257
0.0881751
0.0866995
0.0858096
0.0872271
0.0979274
0.18954
0.180076
0.0938559
0.0843417
0.0835332
0.0848161
0.0865538
0.0881745
0.0894602
0.090333
0.0907711
0.0907714
0.0903336
0.0894609
0.0881749
0.0865529
0.0848128
0.0835256
0.0843263
0.0938217
0.179924
0.166064
0.0880982
0.0805131
0.0807239
0.082656
0.0848138
0.0866991
0.0881432
0.0891034
0.0895798
0.0895801
0.0891039
0.0881439
0.0866992
0.0848127
0.0826524
0.080716
0.0804974
0.0880643
0.165918
0.146044
0.0803523
0.0758737
0.0777522
0.08072
0.0835269
0.0858093
0.087487
0.0885744
0.0891063
0.0891065
0.0885748
0.0874875
0.0858092
0.0835254
0.0807159
0.0777437
0.0758574
0.0803185
0.145907
0.117413
0.0705352
0.0712219
0.0758668
0.0805019
0.084328
0.0872271
0.0892676
0.0905542
0.091174
0.0911741
0.0905545
0.0892677
0.0872266
0.0843261
0.0804972
0.0758573
0.0712044
0.0705008
0.117285
0.0753091
0.060315
0.0705215
0.0803302
0.0880706
0.0938245
0.0979282
0.100706
0.102415
0.103225
0.103225
0.102414
0.100706
0.0979265
0.0938209
0.0880637
0.080318
0.0705005
0.0602765
0.075184
0.0181986
0.0752544
0.117328
0.145938
0.165939
0.179937
0.189548
0.195877
0.199691
0.201478
0.201477
0.199687
0.19587
0.189536
0.179919
0.165913
0.145903
0.117282
0.0751826
0.0181492
)
;

boundaryField
{
    leftWall
    {
        type            epsilonWallFunction;
        blending        stepwise;
        value           nonuniform List<scalar> 
20
(
0.0181986
0.0753091
0.117413
0.146044
0.166064
0.180076
0.189698
0.196034
0.199853
0.201642
0.201642
0.199853
0.196034
0.189698
0.180076
0.166064
0.146044
0.117413
0.0753091
0.0181986
)
;
    }
    rightWall
    {
        type            epsilonWallFunction;
        blending        stepwise;
        value           nonuniform List<scalar> 
20
(
0.0181492
0.075184
0.117285
0.145907
0.165918
0.179924
0.18954
0.195873
0.199689
0.201478
0.201478
0.199689
0.195873
0.18954
0.179924
0.165918
0.145907
0.117285
0.075184
0.0181492
)
;
    }
    topWall
    {
        type            epsilonWallFunction;
        blending        stepwise;
        value           nonuniform List<scalar> 
20
(
0.0181986
0.0752544
0.117328
0.145938
0.165939
0.179937
0.189548
0.195877
0.199691
0.201478
0.201477
0.199687
0.19587
0.189536
0.179919
0.165913
0.145903
0.117282
0.0751826
0.0181492
)
;
    }
    bottomWall
    {
        type            epsilonWallFunction;
        blending        stepwise;
        value           nonuniform List<scalar> 
20
(
0.0181986
0.0752544
0.117328
0.145938
0.165939
0.179937
0.189548
0.195877
0.199691
0.201478
0.201477
0.199687
0.19587
0.189536
0.179919
0.165913
0.145903
0.117282
0.0751826
0.0181492
)
;
    }
    frontAndBackPlanes
    {
        type            empty;
    }
}


// ************************************************************************* //
