/*--------------------------------*- C++ -*----------------------------------*\
| =========                 |                                                 |
| \\      /  F ield         | OpenFOAM: The Open Source CFD Toolbox           |
|  \\    /   O peration     | Version:  2506                                  |
|   \\  /    A nd           | Website:  www.openfoam.com                      |
|    \\/     M anipulation  |                                                 |
\*---------------------------------------------------------------------------*/
FoamFile
{
    version     2.0;
    format      ascii;
    arch        "LSB;label=32;scalar=64";
    class       volScalarField;
    location    "1.247934";
    object      k;
}
// * * * * * * * * * * * * * * * * * * * * * * * * * * * * * * * * * * * * * //

dimensions      [0 2 -2 0 0 0 0];

internalField   nonuniform List<scalar> 
400
(
0.00482736
0.0131423
0.0179543
0.0210039
0.0231012
0.0245825
0.0256232
0.0263287
0.0267658
0.0269747
0.0269745
0.0267654
0.026328
0.025622
0.0245807
0.0230985
0.021
0.0179489
0.0131331
0.00481738
0.0131485
0.0346329
0.0445902
0.0512069
0.0558812
0.0592176
0.06157
0.0631661
0.0641549
0.0646274
0.0646273
0.0641544
0.0631651
0.0615681
0.0592145
0.0558762
0.0511991
0.0445788
0.0346171
0.0131334
0.0179627
0.0445937
0.0566114
0.0645695
0.0702886
0.074447
0.0774251
0.0794706
0.0807489
0.0813632
0.0813631
0.0807487
0.07947
0.0774237
0.0744443
0.0702838
0.0645618
0.0566002
0.0445791
0.0179494
0.0210139
0.0512138
0.064573
0.0733388
0.0796787
0.0843412
0.0877194
0.0900629
0.0915385
0.0922508
0.0922508
0.0915384
0.0900625
0.0877183
0.0843388
0.0796742
0.0733315
0.0645621
0.0511998
0.0210007
0.0231129
0.0558908
0.0702949
0.0796816
0.0864798
0.0915089
0.0951793
0.0977431
0.0993663
0.100153
0.100153
0.0993664
0.0977429
0.0951784
0.0915067
0.0864755
0.0796745
0.0702844
0.055877
0.0230992
0.0245955
0.0592292
0.0744555
0.0843463
0.0915111
0.0968271
0.100724
0.103457
0.105194
0.106038
0.106038
0.105195
0.103457
0.100723
0.0968251
0.091507
0.0843394
0.0744451
0.0592154
0.0245815
0.0256371
0.061583
0.077435
0.0877259
0.095183
0.100725
0.104797
0.107662
0.109487
0.110375
0.110375
0.109487
0.107662
0.104797
0.100723
0.095179
0.0877191
0.0774247
0.0615692
0.0256228
0.0263433
0.0631801
0.0794815
0.0900703
0.0977477
0.10346
0.107663
0.110625
0.112515
0.113435
0.113435
0.112515
0.110625
0.107663
0.103458
0.0977438
0.0900636
0.0794712
0.0631662
0.0263288
0.0267808
0.0641694
0.0807603
0.0915463
0.0993713
0.105197
0.109488
0.112515
0.114447
0.115389
0.115389
0.114448
0.112515
0.109488
0.105196
0.0993675
0.0915397
0.08075
0.0641555
0.0267661
0.0269899
0.0646423
0.0813747
0.0922589
0.100158
0.106041
0.110376
0.113435
0.115389
0.116341
0.116341
0.115389
0.113435
0.110376
0.106039
0.100154
0.0922522
0.0813645
0.0646284
0.0269752
0.0269899
0.0646423
0.0813747
0.0922589
0.100158
0.106041
0.110376
0.113435
0.115389
0.116341
0.116341
0.115389
0.113435
0.110376
0.106039
0.100154
0.0922522
0.0813645
0.0646284
0.0269752
0.0267808
0.0641694
0.0807603
0.0915463
0.0993713
0.105197
0.109488
0.112515
0.114447
0.115389
0.115389
0.114448
0.112515
0.109488
0.105196
0.0993675
0.0915397
0.08075
0.0641555
0.0267661
0.0263433
0.0631801
0.0794815
0.0900703
0.0977477
0.10346
0.107663
0.110625
0.112515
0.113435
0.113435
0.112515
0.110625
0.107663
0.103458
0.0977438
0.0900636
0.0794712
0.0631662
0.0263288
0.0256371
0.061583
0.077435
0.0877259
0.095183
0.100725
0.104797
0.107662
0.109487
0.110375
0.110375
0.109487
0.107662
0.104797
0.100723
0.095179
0.0877191
0.0774247
0.0615692
0.0256228
0.0245955
0.0592292
0.0744555
0.0843463
0.0915111
0.0968271
0.100724
0.103457
0.105194
0.106038
0.106038
0.105195
0.103457
0.100723
0.0968251
0.091507
0.0843394
0.0744451
0.0592154
0.0245815
0.0231129
0.0558908
0.0702949
0.0796816
0.0864798
0.0915089
0.0951793
0.0977431
0.0993663
0.100153
0.100153
0.0993664
0.0977429
0.0951784
0.0915067
0.0864755
0.0796745
0.0702844
0.055877
0.0230992
0.0210139
0.0512138
0.064573
0.0733388
0.0796787
0.0843412
0.0877194
0.0900629
0.0915385
0.0922508
0.0922508
0.0915384
0.0900625
0.0877183
0.0843388
0.0796742
0.0733315
0.0645621
0.0511998
0.0210007
0.0179627
0.0445937
0.0566114
0.0645694
0.0702886
0.074447
0.0774251
0.0794706
0.0807489
0.0813632
0.0813631
0.0807487
0.07947
0.0774237
0.0744443
0.0702838
0.0645618
0.0566002
0.0445791
0.0179494
0.0131485
0.0346329
0.0445902
0.0512069
0.0558812
0.0592176
0.06157
0.0631661
0.0641549
0.0646274
0.0646273
0.0641544
0.0631651
0.0615681
0.0592145
0.0558762
0.0511991
0.0445788
0.0346171
0.0131334
0.00482736
0.0131423
0.0179543
0.0210039
0.0231012
0.0245825
0.0256232
0.0263287
0.0267658
0.0269746
0.0269745
0.0267654
0.026328
0.025622
0.0245807
0.0230985
0.021
0.0179489
0.0131331
0.00481738
)
;

boundaryField
{
    leftWall
    {
        type            kqRWallFunction;
        value           nonuniform List<scalar> 
20
(
0.00482736
0.0131485
0.0179627
0.0210139
0.0231129
0.0245955
0.0256371
0.0263433
0.0267808
0.0269899
0.0269899
0.0267808
0.0263433
0.0256371
0.0245955
0.0231129
0.0210139
0.0179627
0.0131485
0.00482736
)
;
    }
    rightWall
    {
        type            kqRWallFunction;
        value           nonuniform List<scalar> 
20
(
0.00481738
0.0131334
0.0179494
0.0210007
0.0230992
0.0245815
0.0256228
0.0263288
0.0267661
0.0269752
0.0269752
0.0267661
0.0263288
0.0256228
0.0245815
0.0230992
0.0210007
0.0179494
0.0131334
0.00481738
)
;
    }
    topWall
    {
        type            kqRWallFunction;
        value           nonuniform List<scalar> 
20
(
0.00482736
0.0131423
0.0179543
0.0210039
0.0231012
0.0245825
0.0256232
0.0263287
0.0267658
0.0269747
0.0269745
0.0267654
0.026328
0.025622
0.0245807
0.0230985
0.021
0.0179489
0.0131331
0.00481738
)
;
    }
    bottomWall
    {
        type            kqRWallFunction;
        value           nonuniform List<scalar> 
20
(
0.00482736
0.0131423
0.0179543
0.0210039
0.0231012
0.0245825
0.0256232
0.0263287
0.0267658
0.0269746
0.0269745
0.0267654
0.026328
0.025622
0.0245807
0.0230985
0.021
0.0179489
0.0131331
0.00481738
)
;
    }
    frontAndBackPlanes
    {
        type            empty;
    }
}


// ************************************************************************* //
