/*--------------------------------*- C++ -*----------------------------------*\
| =========                 |                                                 |
| \\      /  F ield         | OpenFOAM: The Open Source CFD Toolbox           |
|  \\    /   O peration     | Version:  2506                                  |
|   \\  /    A nd           | Website:  www.openfoam.com                      |
|    \\/     M anipulation  |                                                 |
\*---------------------------------------------------------------------------*/
FoamFile
{
    version     2.0;
    format      ascii;
    arch        "LSB;label=32;scalar=64";
    class       volScalarField;
    location    "1.247934";
    object      nut;
}
// * * * * * * * * * * * * * * * * * * * * * * * * * * * * * * * * * * * * * //

dimensions      [0 2 -1 0 0 0 0];

internalField   nonuniform List<scalar> 
400
(
0.000115246
0.000206564
0.000247272
0.000272064
0.000289443
0.000302255
0.000311738
0.000318505
0.000322881
0.000325032
0.000325032
0.000322879
0.000318501
0.000311729
0.000302241
0.00028942
0.00027203
0.000247222
0.000206472
0.000115082
0.000206608
0.00178976
0.00253747
0.00293779
0.00319112
0.00336378
0.00348395
0.00356577
0.00361693
0.00364158
0.00364156
0.00361688
0.00356568
0.00348381
0.00336355
0.0031908
0.00293734
0.00253692
0.00178927
0.000206476
0.000247326
0.00253737
0.00404983
0.0049459
0.00552339
0.00591514
0.00618522
0.0063674
0.00648048
0.00653472
0.0065347
0.00648043
0.00636729
0.00618503
0.00591484
0.00552297
0.00494534
0.00404922
0.00253695
0.000247229
0.000272128
0.00293777
0.00494598
0.00622583
0.00707858
0.00766472
0.00807048
0.00834432
0.00851416
0.00859556
0.00859555
0.00851411
0.00834421
0.00807029
0.00766441
0.00707813
0.00622527
0.00494539
0.0029374
0.000272039
0.000289518
0.00319122
0.00552363
0.00707874
0.00814325
0.00888593
0.00940402
0.00975497
0.00997302
0.0100776
0.0100776
0.00997297
0.00975487
0.00940382
0.00888562
0.0081428
0.00707818
0.00552304
0.00319087
0.000289431
0.00030234
0.00336398
0.00591553
0.00766506
0.00888611
0.00974879
0.0103553
0.010768
0.0110251
0.0111486
0.0111485
0.011025
0.0107679
0.0103551
0.00974848
0.00888566
0.00766449
0.00591495
0.00336364
0.000302252
0.00031183
0.00348423
0.00618573
0.00807097
0.00940436
0.0103554
0.0110284
0.0114883
0.0117755
0.0119137
0.0119137
0.0117755
0.0114882
0.0110282
0.0103551
0.0094039
0.0080704
0.00618515
0.00348389
0.000311742
0.000318603
0.00356611
0.00636801
0.00834492
0.00975543
0.0107683
0.0114885
0.0119823
0.0122913
0.0124401
0.0124401
0.0122913
0.0119822
0.0114883
0.010768
0.00975497
0.00834434
0.00636743
0.00356577
0.000318514
0.000322982
0.00361731
0.00648116
0.00851483
0.00997356
0.0110254
0.0117758
0.0122914
0.0126146
0.0127704
0.0127703
0.0126145
0.0122913
0.0117756
0.0110251
0.0099731
0.00851425
0.00648057
0.00361697
0.000322893
0.000325136
0.00364198
0.00653543
0.00859628
0.0100782
0.011149
0.0119139
0.0124403
0.0127704
0.0129296
0.0129296
0.0127704
0.0124402
0.0119137
0.0111486
0.0100777
0.0085957
0.00653484
0.00364165
0.000325046
0.000325136
0.00364198
0.00653543
0.00859628
0.0100782
0.011149
0.0119139
0.0124403
0.0127704
0.0129296
0.0129296
0.0127704
0.0124402
0.0119137
0.0111486
0.0100777
0.0085957
0.00653484
0.00364165
0.000325046
0.000322982
0.00361731
0.00648116
0.00851483
0.00997356
0.0110254
0.0117758
0.0122914
0.0126146
0.0127704
0.0127703
0.0126145
0.0122913
0.0117756
0.0110251
0.0099731
0.00851425
0.00648057
0.00361697
0.000322893
0.000318603
0.00356611
0.00636801
0.00834492
0.00975543
0.0107683
0.0114885
0.0119823
0.0122913
0.0124401
0.0124401
0.0122913
0.0119822
0.0114883
0.010768
0.00975497
0.00834434
0.00636743
0.00356578
0.000318514
0.00031183
0.00348423
0.00618573
0.00807097
0.00940435
0.0103554
0.0110284
0.0114883
0.0117755
0.0119137
0.0119137
0.0117755
0.0114882
0.0110282
0.0103551
0.0094039
0.0080704
0.00618515
0.00348389
0.000311742
0.00030234
0.00336398
0.00591553
0.00766506
0.00888611
0.00974879
0.0103553
0.010768
0.0110251
0.0111486
0.0111485
0.011025
0.0107679
0.0103551
0.00974848
0.00888566
0.00766449
0.00591495
0.00336364
0.000302252
0.000289518
0.00319122
0.00552362
0.00707874
0.00814325
0.00888593
0.00940401
0.00975497
0.00997302
0.0100776
0.0100776
0.00997297
0.00975487
0.00940382
0.00888562
0.0081428
0.00707818
0.00552304
0.00319087
0.000289431
0.000272128
0.00293777
0.00494598
0.00622583
0.00707858
0.00766472
0.00807048
0.00834432
0.00851416
0.00859556
0.00859555
0.00851411
0.00834421
0.00807029
0.00766441
0.00707813
0.00622527
0.00494539
0.0029374
0.000272039
0.000247326
0.00253737
0.00404983
0.0049459
0.00552339
0.00591514
0.00618522
0.0063674
0.00648048
0.00653472
0.0065347
0.00648043
0.00636729
0.00618503
0.00591485
0.00552297
0.00494534
0.00404922
0.00253695
0.000247229
0.000206608
0.00178976
0.00253747
0.00293779
0.00319112
0.00336378
0.00348395
0.00356577
0.00361693
0.00364158
0.00364156
0.00361688
0.00356568
0.00348381
0.00336355
0.0031908
0.00293734
0.00253692
0.00178927
0.000206476
0.000115246
0.000206564
0.000247272
0.000272064
0.000289443
0.000302255
0.000311738
0.000318505
0.000322881
0.000325032
0.000325032
0.000322879
0.000318501
0.000311729
0.000302241
0.00028942
0.00027203
0.000247222
0.000206472
0.000115082
)
;

boundaryField
{
    leftWall
    {
        type            nutkWallFunction;
        blending        stepwise;
        value           nonuniform List<scalar> 
20
(
1.98395e-05
3.12973e-05
3.6073e-05
3.87443e-05
4.04612e-05
4.16234e-05
4.24174e-05
4.29458e-05
4.32693e-05
4.34229e-05
4.34229e-05
4.32693e-05
4.29458e-05
4.24174e-05
4.16234e-05
4.04612e-05
3.87443e-05
3.6073e-05
3.12973e-05
1.98395e-05
)
;
    }
    rightWall
    {
        type            nutkWallFunction;
        blending        stepwise;
        value           nonuniform List<scalar> 
20
(
2.29374e-05
3.65672e-05
4.22242e-05
4.53813e-05
4.74081e-05
4.87792e-05
4.97154e-05
5.03383e-05
5.07196e-05
5.09006e-05
5.09006e-05
5.07196e-05
5.03383e-05
4.97154e-05
4.87792e-05
4.74081e-05
4.53813e-05
4.22242e-05
3.65672e-05
2.29374e-05
)
;
    }
    topWall
    {
        type            nutkWallFunction;
        blending        stepwise;
        value           nonuniform List<scalar> 
20
(
2.29598e-05
3.65787e-05
4.22295e-05
4.53844e-05
4.74099e-05
4.87801e-05
4.97157e-05
5.03382e-05
5.07192e-05
5.09001e-05
5.09e-05
5.07189e-05
5.03376e-05
4.97147e-05
4.87784e-05
4.74074e-05
4.53806e-05
4.22237e-05
3.65669e-05
2.29374e-05
)
;
    }
    bottomWall
    {
        type            nutkWallFunction;
        blending        stepwise;
        value           nonuniform List<scalar> 
20
(
2.29598e-05
3.65787e-05
4.22295e-05
4.53844e-05
4.74099e-05
4.87801e-05
4.97157e-05
5.03382e-05
5.07192e-05
5.09001e-05
5.09e-05
5.07189e-05
5.03376e-05
4.97147e-05
4.87784e-05
4.74074e-05
4.53806e-05
4.22237e-05
3.65669e-05
2.29374e-05
)
;
    }
    frontAndBackPlanes
    {
        type            empty;
    }
}


// ************************************************************************* //
