/*--------------------------------*- C++ -*----------------------------------*\
| =========                 |                                                 |
| \\      /  F ield         | OpenFOAM: The Open Source CFD Toolbox           |
|  \\    /   O peration     | Version:  2506                                  |
|   \\  /    A nd           | Website:  www.openfoam.com                      |
|    \\/     M anipulation  |                                                 |
\*---------------------------------------------------------------------------*/
FoamFile
{
    version     2.0;
    format      ascii;
    arch        "LSB;label=32;scalar=64";
    class       volScalarField;
    location    "1.247934";
    object      T;
}
// * * * * * * * * * * * * * * * * * * * * * * * * * * * * * * * * * * * * * //

dimensions      [0 0 0 1 0 0 0];

internalField   nonuniform List<scalar> 
400
(
286.951
277.785
275.707
274.786
274.231
273.861
273.605
273.425
273.298
273.208
273.145
273.1
273.068
273.046
273.031
273.02
273.013
273.008
273.004
273.001
284.042
278.34
276.41
275.341
274.656
274.186
273.854
273.614
273.441
273.315
273.224
273.158
273.111
273.077
273.053
273.036
273.024
273.016
273.009
273.004
283.16
278.346
276.598
275.561
274.859
274.36
273.997
273.729
273.531
273.385
273.278
273.199
273.141
273.1
273.07
273.048
273.033
273.022
273.014
273.007
282.838
278.32
276.677
275.68
274.986
274.478
274.099
273.815
273.601
273.441
273.322
273.233
273.167
273.119
273.085
273.059
273.041
273.028
273.018
273.01
282.682
278.302
276.719
275.753
275.07
274.562
274.176
273.882
273.658
273.487
273.358
273.262
273.19
273.137
273.098
273.069
273.049
273.034
273.023
273.012
282.59
278.293
276.745
275.801
275.128
274.622
274.233
273.933
273.702
273.524
273.389
273.286
273.209
273.152
273.109
273.078
273.056
273.039
273.026
273.015
282.531
278.287
276.763
275.833
275.168
274.665
274.275
273.972
273.736
273.553
273.413
273.306
273.225
273.164
273.119
273.086
273.061
273.043
273.03
273.017
282.493
278.285
276.775
275.855
275.195
274.694
274.304
273.999
273.76
273.574
273.43
273.32
273.236
273.173
273.126
273.091
273.066
273.047
273.032
273.018
282.47
278.283
276.782
275.868
275.212
274.712
274.323
274.016
273.776
273.588
273.442
273.33
273.244
273.18
273.131
273.095
273.069
273.049
273.034
273.019
282.46
278.283
276.786
275.874
275.22
274.721
274.332
274.025
273.784
273.595
273.448
273.335
273.248
273.183
273.134
273.097
273.07
273.05
273.035
273.02
282.46
278.283
276.786
275.874
275.22
274.721
274.332
274.025
273.784
273.595
273.448
273.335
273.248
273.183
273.134
273.097
273.07
273.05
273.035
273.02
282.47
278.283
276.782
275.868
275.212
274.712
274.323
274.016
273.776
273.588
273.442
273.33
273.244
273.18
273.131
273.095
273.069
273.049
273.034
273.019
282.493
278.285
276.775
275.855
275.195
274.694
274.304
273.999
273.76
273.574
273.43
273.32
273.236
273.173
273.126
273.091
273.066
273.047
273.032
273.018
282.531
278.287
276.763
275.833
275.168
274.665
274.275
273.972
273.736
273.553
273.413
273.306
273.225
273.164
273.119
273.086
273.061
273.043
273.03
273.017
282.59
278.293
276.745
275.801
275.128
274.622
274.233
273.933
273.702
273.524
273.389
273.286
273.209
273.152
273.109
273.078
273.056
273.039
273.026
273.015
282.682
278.302
276.719
275.753
275.07
274.562
274.176
273.882
273.658
273.487
273.358
273.262
273.19
273.137
273.098
273.069
273.049
273.034
273.023
273.012
282.838
278.32
276.677
275.68
274.986
274.478
274.099
273.815
273.601
273.441
273.322
273.233
273.167
273.119
273.085
273.059
273.041
273.028
273.018
273.01
283.16
278.346
276.598
275.561
274.859
274.36
273.997
273.729
273.531
273.385
273.278
273.199
273.141
273.1
273.07
273.048
273.033
273.022
273.014
273.007
284.042
278.34
276.41
275.341
274.656
274.186
273.854
273.614
273.441
273.315
273.224
273.158
273.111
273.077
273.053
273.036
273.024
273.016
273.009
273.004
286.951
277.785
275.707
274.786
274.231
273.861
273.605
273.425
273.298
273.208
273.145
273.1
273.068
273.046
273.031
273.02
273.013
273.008
273.004
273.001
)
;

boundaryField
{
    leftWall
    {
        type            fixedValue;
        value           uniform 373;
    }
    rightWall
    {
        type            fixedValue;
        value           uniform 273;
    }
    topWall
    {
        type            fixedValue;
        value           uniform 273;
    }
    bottomWall
    {
        type            fixedValue;
        value           uniform 273;
    }
    frontAndBackPlanes
    {
        type            empty;
    }
}


// ************************************************************************* //
