/*--------------------------------*- C++ -*----------------------------------*\
| =========                 |                                                 |
| \\      /  F ield         | OpenFOAM: The Open Source CFD Toolbox           |
|  \\    /   O peration     | Version:  2506                                  |
|   \\  /    A nd           | Website:  www.openfoam.com                      |
|    \\/     M anipulation  |                                                 |
\*---------------------------------------------------------------------------*/
FoamFile
{
    version     2.0;
    format      ascii;
    arch        "LSB;label=32;scalar=64";
    class       volVectorField;
    location    "1.247934";
    object      U;
}
// * * * * * * * * * * * * * * * * * * * * * * * * * * * * * * * * * * * * * //

dimensions      [0 1 -1 0 0 0 0];

internalField   nonuniform List<vector> 
400
(
(-0.000255134 -0.00028994 0)
(-9.86532e-06 -0.000106587 0)
(-9.13833e-06 -8.13077e-05 0)
(7.87014e-06 -7.4052e-05 0)
(1.79328e-05 -6.59251e-05 0)
(2.34101e-05 -5.7936e-05 0)
(2.62093e-05 -5.07033e-05 0)
(2.74064e-05 -4.43042e-05 0)
(2.75714e-05 -3.87252e-05 0)
(2.70615e-05 -3.39139e-05 0)
(2.61148e-05 -2.97954e-05 0)
(2.48906e-05 -2.62941e-05 0)
(2.34942e-05 -2.3347e-05 0)
(2.19937e-05 -2.09128e-05 0)
(2.04371e-05 -1.8981e-05 0)
(1.88738e-05 -1.75576e-05 0)
(1.72927e-05 -1.6638e-05 0)
(1.55084e-05 -1.67776e-05 0)
(1.4375e-05 -2.18231e-05 0)
(3.5321e-05 -3.54334e-05 0)
(-5.68478e-05 -5.31826e-05 0)
(-1.6547e-05 -5.90735e-05 0)
(-9.3816e-06 -4.85955e-05 0)
(1.26164e-07 -4.17465e-05 0)
(7.73102e-06 -3.54126e-05 0)
(1.32851e-05 -2.99884e-05 0)
(1.72172e-05 -2.54893e-05 0)
(1.98736e-05 -2.17679e-05 0)
(2.15156e-05 -1.86779e-05 0)
(2.23654e-05 -1.61067e-05 0)
(2.26112e-05 -1.39657e-05 0)
(2.24086e-05 -1.21859e-05 0)
(2.18844e-05 -1.07168e-05 0)
(2.11419e-05 -9.52836e-06 0)
(2.02712e-05 -8.61244e-06 0)
(1.93628e-05 -7.98349e-06 0)
(1.84607e-05 -7.73285e-06 0)
(1.74709e-05 -8.32977e-06 0)
(1.71414e-05 -1.08366e-05 0)
(2.74049e-05 -1.25312e-05 0)
(-2.63558e-05 -6.37034e-05 0)
(-1.03319e-05 -5.48304e-05 0)
(-7.45043e-06 -4.49657e-05 0)
(-2.57272e-06 -3.77737e-05 0)
(2.44389e-06 -3.17755e-05 0)
(7.07278e-06 -2.66546e-05 0)
(1.10053e-05 -2.23679e-05 0)
(1.41393e-05 -1.88302e-05 0)
(1.64812e-05 -1.59266e-05 0)
(1.81029e-05 -1.35488e-05 0)
(1.91092e-05 -1.16047e-05 0)
(1.96144e-05 -1.00205e-05 0)
(1.97301e-05 -8.7425e-06 0)
(1.95585e-05 -7.73898e-06 0)
(1.91927e-05 -7.00233e-06 0)
(1.87103e-05 -6.55327e-06 0)
(1.81012e-05 -6.4866e-06 0)
(1.7233e-05 -7.11907e-06 0)
(1.67261e-05 -8.86227e-06 0)
(2.51246e-05 -1.00422e-05 0)
(-2.81498e-05 -5.63422e-05 0)
(-1.14352e-05 -4.81259e-05 0)
(-8.75536e-06 -4.00998e-05 0)
(-5.27473e-06 -3.39437e-05 0)
(-1.24742e-06 -2.86923e-05 0)
(2.90006e-06 -2.40933e-05 0)
(6.74317e-06 -2.01476e-05 0)
(1.00691e-05 -1.68387e-05 0)
(1.27833e-05 -1.41044e-05 0)
(1.48733e-05 -1.18675e-05 0)
(1.6382e-05 -1.00519e-05 0)
(1.73839e-05 -8.5916e-06 0)
(1.79669e-05 -7.43584e-06 0)
(1.82195e-05 -6.55298e-06 0)
(1.82256e-05 -5.93284e-06 0)
(1.80471e-05 -5.59069e-06 0)
(1.76458e-05 -5.5943e-06 0)
(1.6911e-05 -6.12138e-06 0)
(1.65952e-05 -7.32549e-06 0)
(2.55241e-05 -8.14559e-06 0)
(-3.09776e-05 -4.62896e-05 0)
(-1.33347e-05 -4.03259e-05 0)
(-1.07642e-05 -3.42345e-05 0)
(-7.75008e-06 -2.92465e-05 0)
(-4.08159e-06 -2.48655e-05 0)
(-1.46203e-07 -2.09521e-05 0)
(3.6407e-06 -1.75263e-05 0)
(7.06114e-06 -1.46031e-05 0)
(9.99192e-06 -1.21592e-05 0)
(1.238e-05 -1.01488e-05 0)
(1.42302e-05 -8.51817e-06 0)
(1.5586e-05 -7.2157e-06 0)
(1.65125e-05 -6.19876e-06 0)
(1.70822e-05 -5.43855e-06 0)
(1.73668e-05 -4.92255e-06 0)
(1.74162e-05 -4.65674e-06 0)
(1.71848e-05 -4.67745e-06 0)
(1.65935e-05 -5.06807e-06 0)
(1.64872e-05 -5.86962e-06 0)
(2.58385e-05 -6.4172e-06 0)
(-3.31217e-05 -3.68789e-05 0)
(-1.47488e-05 -3.27057e-05 0)
(-1.2368e-05 -2.81088e-05 0)
(-9.63305e-06 -2.41621e-05 0)
(-6.17476e-06 -2.06308e-05 0)
(-2.37101e-06 -1.74399e-05 0)
(1.36956e-06 -1.46088e-05 0)
(4.83462e-06 -1.216e-05 0)
(7.89268e-06 -1.00902e-05 0)
(1.04712e-05 -8.37574e-06 0)
(1.25517e-05 -6.98218e-06 0)
(1.41559e-05 -5.87245e-06 0)
(1.53299e-05 -5.01356e-06 0)
(1.61315e-05 -4.3812e-06 0)
(1.66208e-05 -3.96196e-06 0)
(1.68394e-05 -3.75412e-06 0)
(1.67412e-05 -3.77201e-06 0)
(1.62714e-05 -4.04993e-06 0)
(1.63263e-05 -4.59091e-06 0)
(2.59171e-05 -4.97347e-06 0)
(-3.49264e-05 -2.81439e-05 0)
(-1.57737e-05 -2.52793e-05 0)
(-1.35071e-05 -2.19208e-05 0)
(-1.0953e-05 -1.89397e-05 0)
(-7.64512e-06 -1.62294e-05 0)
(-3.94212e-06 -1.37573e-05 0)
(-2.47095e-07 -1.15425e-05 0)
(3.23196e-06 -9.60753e-06 0)
(6.361e-06 -7.95768e-06 0)
(9.05756e-06 -6.58257e-06 0)
(1.12889e-05 -5.46146e-06 0)
(1.30616e-05 -4.5694e-06 0)
(1.44078e-05 -3.88242e-06 0)
(1.53732e-05 -3.38135e-06 0)
(1.60089e-05 -3.05356e-06 0)
(1.63507e-05 -2.89314e-06 0)
(1.63545e-05 -2.90222e-06 0)
(1.59832e-05 -3.09224e-06 0)
(1.61609e-05 -3.45731e-06 0)
(2.59048e-05 -3.73532e-06 0)
(-3.63087e-05 -1.98108e-05 0)
(-1.64994e-05 -1.79636e-05 0)
(-1.42785e-05 -1.56841e-05 0)
(-1.18307e-05 -1.36104e-05 0)
(-8.62424e-06 -1.16982e-05 0)
(-4.99559e-06 -9.93893e-06 0)
(-1.34077e-06 -8.35112e-06 0)
(2.13644e-06 -6.9538e-06 0)
(5.30184e-06 -5.75469e-06 0)
(8.06788e-06 -4.75034e-06 0)
(1.03934e-05 -3.92919e-06 0)
(1.22751e-05 -3.27563e-06 0)
(1.37351e-05 -2.77357e-06 0)
(1.48106e-05 -2.40924e-06 0)
(1.55462e-05 -2.17236e-06 0)
(1.59742e-05 -2.0562e-06 0)
(1.6053e-05 -2.05788e-06 0)
(1.57571e-05 -2.1795e-06 0)
(1.60241e-05 -2.41555e-06 0)
(2.5864e-05 -2.61029e-06 0)
(-3.72202e-05 -1.1765e-05 0)
(-1.69597e-05 -1.07366e-05 0)
(-1.47526e-05 -9.41806e-06 0)
(-1.23621e-05 -8.1986e-06 0)
(-9.21733e-06 -7.06224e-06 0)
(-5.63748e-06 -6.01003e-06 0)
(-2.01233e-06 -5.05545e-06 0)
(1.45797e-06 -4.21136e-06 0)
(4.6399e-06 -3.48391e-06 0)
(7.44351e-06 -2.87255e-06 0)
(9.82297e-06 -2.37166e-06 0)
(1.17689e-05 -1.97277e-06 0)
(1.32975e-05 -1.66667e-06 0)
(1.44404e-05 -1.44508e-06 0)
(1.52381e-05 -1.30134e-06 0)
(1.5721e-05 -1.23039e-06 0)
(1.58492e-05 -1.22892e-06 0)
(1.5604e-05 -1.2963e-06 0)
(1.59286e-05 -1.42938e-06 0)
(2.58228e-05 -1.54615e-06 0)
(-3.76704e-05 -3.90107e-06 0)
(-1.71818e-05 -3.57156e-06 0)
(-1.49771e-05 -3.14032e-06 0)
(-1.26115e-05 -2.73814e-06 0)
(-9.49574e-06 -2.36133e-06 0)
(-5.94006e-06 -2.01123e-06 0)
(-2.33059e-06 -1.69277e-06 0)
(1.13458e-06 -1.4105e-06 0)
(4.32251e-06 -1.16671e-06 0)
(7.14233e-06 -9.61483e-07 0)
(9.54612e-06 -7.93151e-07 0)
(1.15217e-05 -6.59045e-07 0)
(1.30824e-05 -5.56177e-07 0)
(1.42572e-05 -4.81777e-07 0)
(1.50845e-05 -4.33543e-07 0)
(1.55942e-05 -4.09626e-07 0)
(1.57468e-05 -4.08679e-07 0)
(1.55271e-05 -4.30224e-07 0)
(1.58797e-05 -4.73292e-07 0)
(2.57982e-05 -5.12333e-07 0)
(-3.76704e-05 3.9011e-06 0)
(-1.71818e-05 3.57159e-06 0)
(-1.49771e-05 3.14036e-06 0)
(-1.26115e-05 2.73818e-06 0)
(-9.49574e-06 2.36137e-06 0)
(-5.94005e-06 2.01128e-06 0)
(-2.33059e-06 1.69283e-06 0)
(1.13458e-06 1.41056e-06 0)
(4.32252e-06 1.16678e-06 0)
(7.14234e-06 9.61557e-07 0)
(9.54612e-06 7.93224e-07 0)
(1.15217e-05 6.59113e-07 0)
(1.30824e-05 5.56237e-07 0)
(1.42572e-05 4.81829e-07 0)
(1.50845e-05 4.33588e-07 0)
(1.55941e-05 4.09664e-07 0)
(1.57468e-05 4.0871e-07 0)
(1.55271e-05 4.30251e-07 0)
(1.58797e-05 4.73315e-07 0)
(2.57982e-05 5.12353e-07 0)
(-3.72202e-05 1.17651e-05 0)
(-1.69597e-05 1.07366e-05 0)
(-1.47525e-05 9.41809e-06 0)
(-1.23621e-05 8.19863e-06 0)
(-9.21732e-06 7.06228e-06 0)
(-5.63747e-06 6.01008e-06 0)
(-2.01231e-06 5.05551e-06 0)
(1.45799e-06 4.21142e-06 0)
(4.63991e-06 3.48397e-06 0)
(7.44351e-06 2.87262e-06 0)
(9.82297e-06 2.37173e-06 0)
(1.17689e-05 1.97283e-06 0)
(1.32975e-05 1.66673e-06 0)
(1.44404e-05 1.44513e-06 0)
(1.52381e-05 1.30138e-06 0)
(1.5721e-05 1.23042e-06 0)
(1.58492e-05 1.22895e-06 0)
(1.5604e-05 1.29633e-06 0)
(1.59286e-05 1.4294e-06 0)
(2.58228e-05 1.54617e-06 0)
(-3.63087e-05 1.98109e-05 0)
(-1.64994e-05 1.79636e-05 0)
(-1.42785e-05 1.56841e-05 0)
(-1.18306e-05 1.36104e-05 0)
(-8.62422e-06 1.16982e-05 0)
(-4.99557e-06 9.93898e-06 0)
(-1.34075e-06 8.35117e-06 0)
(2.13646e-06 6.95385e-06 0)
(5.30185e-06 5.75475e-06 0)
(8.06789e-06 4.7504e-06 0)
(1.03934e-05 3.92925e-06 0)
(1.22751e-05 3.27568e-06 0)
(1.37351e-05 2.77362e-06 0)
(1.48106e-05 2.40928e-06 0)
(1.55462e-05 2.1724e-06 0)
(1.59742e-05 2.05623e-06 0)
(1.6053e-05 2.05791e-06 0)
(1.57571e-05 2.17952e-06 0)
(1.60241e-05 2.41557e-06 0)
(2.5864e-05 2.61031e-06 0)
(-3.49264e-05 2.81439e-05 0)
(-1.57737e-05 2.52794e-05 0)
(-1.35071e-05 2.19209e-05 0)
(-1.0953e-05 1.89397e-05 0)
(-7.64509e-06 1.62294e-05 0)
(-3.94209e-06 1.37573e-05 0)
(-2.4707e-07 1.15426e-05 0)
(3.23198e-06 9.60757e-06 0)
(6.36103e-06 7.95773e-06 0)
(9.05757e-06 6.58261e-06 0)
(1.12889e-05 5.46151e-06 0)
(1.30616e-05 4.56944e-06 0)
(1.44078e-05 3.88246e-06 0)
(1.53732e-05 3.38139e-06 0)
(1.60089e-05 3.05359e-06 0)
(1.63506e-05 2.89317e-06 0)
(1.63545e-05 2.90224e-06 0)
(1.59832e-05 3.09225e-06 0)
(1.61609e-05 3.45733e-06 0)
(2.59048e-05 3.73534e-06 0)
(-3.31216e-05 3.68789e-05 0)
(-1.47488e-05 3.27057e-05 0)
(-1.23679e-05 2.81088e-05 0)
(-9.63303e-06 2.41621e-05 0)
(-6.17473e-06 2.06308e-05 0)
(-2.37098e-06 1.74399e-05 0)
(1.36959e-06 1.46089e-05 0)
(4.83464e-06 1.216e-05 0)
(7.8927e-06 1.00902e-05 0)
(1.04713e-05 8.37577e-06 0)
(1.25518e-05 6.98221e-06 0)
(1.41559e-05 5.87248e-06 0)
(1.53299e-05 5.01358e-06 0)
(1.61315e-05 4.38123e-06 0)
(1.66208e-05 3.96198e-06 0)
(1.68394e-05 3.75414e-06 0)
(1.67412e-05 3.77202e-06 0)
(1.62714e-05 4.04995e-06 0)
(1.63263e-05 4.59092e-06 0)
(2.5917e-05 4.97348e-06 0)
(-3.09776e-05 4.62896e-05 0)
(-1.33347e-05 4.03259e-05 0)
(-1.07641e-05 3.42345e-05 0)
(-7.75005e-06 2.92465e-05 0)
(-4.08156e-06 2.48655e-05 0)
(-1.46173e-07 2.09521e-05 0)
(3.64072e-06 1.75263e-05 0)
(7.06116e-06 1.46031e-05 0)
(9.99195e-06 1.21592e-05 0)
(1.23801e-05 1.01488e-05 0)
(1.42302e-05 8.51818e-06 0)
(1.5586e-05 7.21571e-06 0)
(1.65125e-05 6.19877e-06 0)
(1.70822e-05 5.43856e-06 0)
(1.73668e-05 4.92257e-06 0)
(1.74162e-05 4.65675e-06 0)
(1.71848e-05 4.67746e-06 0)
(1.65935e-05 5.06808e-06 0)
(1.64872e-05 5.86963e-06 0)
(2.58385e-05 6.41721e-06 0)
(-2.81497e-05 5.63422e-05 0)
(-1.14352e-05 4.81259e-05 0)
(-8.75534e-06 4.00998e-05 0)
(-5.2747e-06 3.39437e-05 0)
(-1.24739e-06 2.86923e-05 0)
(2.90009e-06 2.40933e-05 0)
(6.74319e-06 2.01476e-05 0)
(1.00691e-05 1.68387e-05 0)
(1.27834e-05 1.41044e-05 0)
(1.48733e-05 1.18675e-05 0)
(1.6382e-05 1.00519e-05 0)
(1.73839e-05 8.5916e-06 0)
(1.79669e-05 7.43584e-06 0)
(1.82195e-05 6.55298e-06 0)
(1.82256e-05 5.93284e-06 0)
(1.80471e-05 5.59069e-06 0)
(1.76458e-05 5.5943e-06 0)
(1.6911e-05 6.12139e-06 0)
(1.65952e-05 7.3255e-06 0)
(2.5524e-05 8.14559e-06 0)
(-2.63558e-05 6.37034e-05 0)
(-1.03319e-05 5.48304e-05 0)
(-7.45041e-06 4.49657e-05 0)
(-2.57269e-06 3.77737e-05 0)
(2.44391e-06 3.17755e-05 0)
(7.07281e-06 2.66546e-05 0)
(1.10053e-05 2.23679e-05 0)
(1.41394e-05 1.88301e-05 0)
(1.64812e-05 1.59265e-05 0)
(1.8103e-05 1.35488e-05 0)
(1.91092e-05 1.16047e-05 0)
(1.96144e-05 1.00205e-05 0)
(1.97301e-05 8.74249e-06 0)
(1.95585e-05 7.73897e-06 0)
(1.91926e-05 7.00233e-06 0)
(1.87103e-05 6.55327e-06 0)
(1.81012e-05 6.4866e-06 0)
(1.7233e-05 7.11907e-06 0)
(1.67261e-05 8.86227e-06 0)
(2.51246e-05 1.00422e-05 0)
(-5.68478e-05 5.31826e-05 0)
(-1.6547e-05 5.90735e-05 0)
(-9.38157e-06 4.85955e-05 0)
(1.26189e-07 4.17465e-05 0)
(7.73105e-06 3.54126e-05 0)
(1.32852e-05 2.99884e-05 0)
(1.72173e-05 2.54893e-05 0)
(1.98736e-05 2.17679e-05 0)
(2.15156e-05 1.86779e-05 0)
(2.23654e-05 1.61067e-05 0)
(2.26113e-05 1.39657e-05 0)
(2.24086e-05 1.21858e-05 0)
(2.18844e-05 1.07168e-05 0)
(2.11419e-05 9.52835e-06 0)
(2.02712e-05 8.61243e-06 0)
(1.93628e-05 7.98348e-06 0)
(1.84607e-05 7.73285e-06 0)
(1.74709e-05 8.32977e-06 0)
(1.71414e-05 1.08366e-05 0)
(2.74049e-05 1.25312e-05 0)
(-0.000255134 0.00028994 0)
(-9.86531e-06 0.000106587 0)
(-9.13831e-06 8.13077e-05 0)
(7.87016e-06 7.4052e-05 0)
(1.79328e-05 6.59251e-05 0)
(2.34102e-05 5.7936e-05 0)
(2.62094e-05 5.07032e-05 0)
(2.74064e-05 4.43041e-05 0)
(2.75714e-05 3.87251e-05 0)
(2.70615e-05 3.39139e-05 0)
(2.61148e-05 2.97954e-05 0)
(2.48906e-05 2.62941e-05 0)
(2.34942e-05 2.33469e-05 0)
(2.19937e-05 2.09128e-05 0)
(2.04371e-05 1.8981e-05 0)
(1.88738e-05 1.75576e-05 0)
(1.72927e-05 1.6638e-05 0)
(1.55084e-05 1.67776e-05 0)
(1.43749e-05 2.18231e-05 0)
(3.5321e-05 3.54334e-05 0)
)
;

boundaryField
{
    leftWall
    {
        type            noSlip;
    }
    rightWall
    {
        type            noSlip;
    }
    topWall
    {
        type            noSlip;
    }
    bottomWall
    {
        type            noSlip;
    }
    frontAndBackPlanes
    {
        type            empty;
    }
}


// ************************************************************************* //
