/*--------------------------------*- C++ -*----------------------------------*\
| =========                 |                                                 |
| \\      /  F ield         | OpenFOAM: The Open Source CFD Toolbox           |
|  \\    /   O peration     | Version:  2506                                  |
|   \\  /    A nd           | Website:  www.openfoam.com                      |
|    \\/     M anipulation  |                                                 |
\*---------------------------------------------------------------------------*/
FoamFile
{
    version     2.0;
    format      ascii;
    arch        "LSB;label=32;scalar=64";
    class       volScalarField;
    location    "4.32210647238";
    object      rho;
}
// * * * * * * * * * * * * * * * * * * * * * * * * * * * * * * * * * * * * * //

dimensions      [1 -3 0 0 0 0 0];

internalField   nonuniform List<scalar> 
200
(
1001.1
1001.14
1001.18
1001.21
1001.24
1001.26
1001.28
1001.3
1001.32
1001.35
1001.04
1001.09
1001.13
1001.17
1001.2
1001.23
1001.25
1001.27
1001.29
1001.32
1001.01
1001.07
1001.11
1001.15
1001.18
1001.21
1001.23
1001.26
1001.28
1001.3
1000.99
1001.04
1001.09
1001.13
1001.16
1001.19
1001.22
1001.24
1001.26
1001.29
1000.97
1001.03
1001.08
1001.12
1001.15
1001.18
1001.21
1001.23
1001.25
1001.28
1000.96
1001.01
1001.06
1001.1
1001.14
1001.17
1001.2
1001.22
1001.24
1001.27
1000.95
1001
1001.05
1001.09
1001.13
1001.16
1001.19
1001.21
1001.23
1001.26
1000.94
1001
1001.04
1001.09
1001.12
1001.15
1001.18
1001.2
1001.23
1001.26
1000.93
1000.99
1001.04
1001.08
1001.12
1001.15
1001.18
1001.2
1001.22
1001.25
1000.93
1000.99
1001.04
1001.08
1001.11
1001.15
1001.17
1001.2
1001.22
1001.25
1000.93
1000.99
1001.04
1001.08
1001.11
1001.15
1001.17
1001.2
1001.22
1001.25
1000.93
1000.99
1001.04
1001.08
1001.12
1001.15
1001.18
1001.2
1001.22
1001.25
1000.94
1001
1001.04
1001.09
1001.12
1001.15
1001.18
1001.2
1001.23
1001.26
1000.95
1001
1001.05
1001.09
1001.13
1001.16
1001.19
1001.21
1001.23
1001.26
1000.96
1001.01
1001.06
1001.1
1001.14
1001.17
1001.2
1001.22
1001.24
1001.27
1000.97
1001.03
1001.08
1001.12
1001.15
1001.18
1001.21
1001.23
1001.25
1001.28
1000.99
1001.04
1001.09
1001.13
1001.16
1001.19
1001.22
1001.24
1001.26
1001.29
1001.01
1001.07
1001.11
1001.15
1001.18
1001.21
1001.23
1001.26
1001.28
1001.3
1001.04
1001.09
1001.13
1001.17
1001.2
1001.23
1001.25
1001.27
1001.29
1001.32
1001.1
1001.14
1001.18
1001.21
1001.24
1001.26
1001.28
1001.3
1001.32
1001.35
)
;

boundaryField
{
    leftWall
    {
        type            calculated;
        value           nonuniform List<scalar> 0();
    }
    rightWall
    {
        type            calculated;
        value           uniform 1001.36;
    }
    topWall
    {
        type            calculated;
        value           uniform 1001.36;
    }
    bottomWall
    {
        type            calculated;
        value           uniform 1001.36;
    }
    frontAndBackPlanes
    {
        type            empty;
    }
    procBoundary0to1
    {
        type            processor;
        value           nonuniform List<scalar> 
20
(
1001.05
1000.98
1000.95
1000.93
1000.91
1000.9
1000.88
1000.88
1000.87
1000.87
1000.87
1000.87
1000.88
1000.88
1000.9
1000.91
1000.93
1000.95
1000.98
1001.05
)
;
    }
}


// ************************************************************************* //
