/*--------------------------------*- C++ -*----------------------------------*\
| =========                 |                                                 |
| \\      /  F ield         | OpenFOAM: The Open Source CFD Toolbox           |
|  \\    /   O peration     | Version:  2506                                  |
|   \\  /    A nd           | Website:  www.openfoam.com                      |
|    \\/     M anipulation  |                                                 |
\*---------------------------------------------------------------------------*/
FoamFile
{
    version     2.0;
    format      ascii;
    arch        "LSB;label=32;scalar=64";
    class       volScalarField;
    location    "4.32210647238";
    object      T;
}
// * * * * * * * * * * * * * * * * * * * * * * * * * * * * * * * * * * * * * //

dimensions      [0 0 0 1 0 0 0];

internalField   nonuniform List<scalar> 
200
(
274.069
273.892
273.742
273.614
273.505
273.41
273.326
273.248
273.166
273.05
274.287
274.086
273.915
273.768
273.642
273.532
273.437
273.351
273.268
273.164
274.408
274.196
274.015
273.86
273.726
273.611
273.51
273.421
273.338
273.236
274.498
274.28
274.093
273.932
273.794
273.675
273.572
273.481
273.396
273.29
274.57
274.348
274.157
273.993
273.851
273.729
273.624
273.532
273.445
273.335
274.627
274.403
274.21
274.043
273.899
273.775
273.669
273.575
273.486
273.372
274.672
274.446
274.251
274.083
273.938
273.813
273.705
273.61
273.519
273.402
274.705
274.479
274.283
274.113
273.967
273.841
273.732
273.636
273.544
273.424
274.726
274.5
274.303
274.133
273.986
273.86
273.75
273.653
273.561
273.438
274.737
274.51
274.314
274.143
273.996
273.869
273.759
273.662
273.569
273.446
274.737
274.51
274.314
274.143
273.996
273.869
273.759
273.662
273.569
273.446
274.726
274.5
274.303
274.133
273.986
273.86
273.75
273.653
273.561
273.438
274.705
274.479
274.283
274.113
273.967
273.841
273.732
273.636
273.544
273.424
274.672
274.446
274.251
274.083
273.938
273.813
273.705
273.61
273.519
273.402
274.627
274.403
274.21
274.043
273.899
273.775
273.669
273.575
273.486
273.372
274.57
274.348
274.157
273.993
273.851
273.729
273.624
273.532
273.445
273.335
274.498
274.28
274.093
273.932
273.794
273.675
273.572
273.481
273.396
273.29
274.408
274.196
274.015
273.86
273.726
273.611
273.51
273.421
273.338
273.236
274.287
274.086
273.915
273.768
273.642
273.532
273.437
273.351
273.268
273.164
274.069
273.892
273.742
273.614
273.505
273.41
273.326
273.248
273.166
273.05
)
;

boundaryField
{
    leftWall
    {
        type            fixedValue;
        value           nonuniform List<scalar> 0();
    }
    rightWall
    {
        type            fixedValue;
        value           uniform 273;
    }
    topWall
    {
        type            fixedValue;
        value           uniform 273;
    }
    bottomWall
    {
        type            fixedValue;
        value           uniform 273;
    }
    frontAndBackPlanes
    {
        type            empty;
    }
    procBoundary0to1
    {
        type            processor;
        value           nonuniform List<scalar> 
20
(
274.277
274.523
274.655
274.752
274.827
274.887
274.932
274.965
274.987
274.997
274.997
274.987
274.965
274.932
274.887
274.827
274.752
274.655
274.523
274.277
)
;
    }
}


// ************************************************************************* //
