/*--------------------------------*- C++ -*----------------------------------*\
| =========                 |                                                 |
| \\      /  F ield         | OpenFOAM: The Open Source CFD Toolbox           |
|  \\    /   O peration     | Version:  2506                                  |
|   \\  /    A nd           | Website:  www.openfoam.com                      |
|    \\/     M anipulation  |                                                 |
\*---------------------------------------------------------------------------*/
FoamFile
{
    version     2.0;
    format      ascii;
    arch        "LSB;label=32;scalar=64";
    class       volVectorField;
    location    "4.32210647238";
    object      U;
}
// * * * * * * * * * * * * * * * * * * * * * * * * * * * * * * * * * * * * * //

dimensions      [0 1 -1 0 0 0 0];

internalField   nonuniform List<vector> 
200
(
(1.40928e-05 -1.30117e-05 0)
(1.45651e-05 -1.167e-05 0)
(1.49058e-05 -1.05473e-05 0)
(1.5111e-05 -9.65917e-06 0)
(1.51748e-05 -9.04834e-06 0)
(1.51229e-05 -8.77414e-06 0)
(1.49237e-05 -8.82812e-06 0)
(1.41264e-05 -9.75627e-06 0)
(1.22494e-05 -1.74466e-05 0)
(4.91515e-05 -5.01576e-05 0)
(1.1552e-05 -6.58338e-06 0)
(1.2333e-05 -5.82672e-06 0)
(1.30107e-05 -5.19472e-06 0)
(1.35909e-05 -4.68916e-06 0)
(1.40824e-05 -4.32937e-06 0)
(1.45131e-05 -4.15325e-06 0)
(1.48878e-05 -4.27435e-06 0)
(1.50023e-05 -5.27152e-06 0)
(1.52145e-05 -8.73133e-06 0)
(2.51337e-05 -1.19744e-05 0)
(9.42957e-06 -5.45642e-06 0)
(1.03897e-05 -4.79179e-06 0)
(1.12746e-05 -4.24913e-06 0)
(1.20869e-05 -3.82813e-06 0)
(1.28323e-05 -3.54509e-06 0)
(1.35158e-05 -3.44082e-06 0)
(1.40754e-05 -3.64274e-06 0)
(1.43195e-05 -4.58166e-06 0)
(1.45815e-05 -6.96317e-06 0)
(2.14608e-05 -9.56088e-06 0)
(7.7579e-06 -4.74368e-06 0)
(8.82079e-06 -4.14593e-06 0)
(9.82949e-06 -3.66775e-06 0)
(1.07803e-05 -3.30777e-06 0)
(1.16724e-05 -3.0782e-06 0)
(1.24937e-05 -3.01214e-06 0)
(1.31507e-05 -3.2038e-06 0)
(1.3479e-05 -3.89502e-06 0)
(1.39951e-05 -5.35875e-06 0)
(2.15143e-05 -6.69934e-06 0)
(6.37862e-06 -4.02901e-06 0)
(7.5008e-06 -3.515e-06 0)
(8.58248e-06 -3.11098e-06 0)
(9.61383e-06 -2.81502e-06 0)
(1.05875e-05 -2.63482e-06 0)
(1.14823e-05 -2.59167e-06 0)
(1.2199e-05 -2.73793e-06 0)
(1.26101e-05 -3.17473e-06 0)
(1.33213e-05 -3.94138e-06 0)
(2.13098e-05 -4.41181e-06 0)
(5.23263e-06 -3.29888e-06 0)
(6.38759e-06 -2.87867e-06 0)
(7.5099e-06 -2.55307e-06 0)
(8.58503e-06 -2.31962e-06 0)
(9.60089e-06 -2.1816e-06 0)
(1.05326e-05 -2.14888e-06 0)
(1.12872e-05 -2.24228e-06 0)
(1.17713e-05 -2.48609e-06 0)
(1.26299e-05 -2.83105e-06 0)
(2.08497e-05 -2.85377e-06 0)
(4.30678e-06 -2.5714e-06 0)
(5.47817e-06 -2.24664e-06 0)
(6.62107e-06 -1.99766e-06 0)
(7.71789e-06 -1.82168e-06 0)
(8.75401e-06 -1.71861e-06 0)
(9.70469e-06 -1.69018e-06 0)
(1.04881e-05 -1.73869e-06 0)
(1.10395e-05 -1.85469e-06 0)
(1.20202e-05 -1.96948e-06 0)
(2.03531e-05 -1.81183e-06 0)
(3.60353e-06 -1.84254e-06 0)
(4.78198e-06 -1.61219e-06 0)
(5.93402e-06 -1.43684e-06 0)
(7.0404e-06 -1.31386e-06 0)
(8.08573e-06 -1.24147e-06 0)
(9.04738e-06 -1.21736e-06 0)
(9.85438e-06 -1.23605e-06 0)
(1.04637e-05 -1.27869e-06 0)
(1.15396e-05 -1.28618e-06 0)
(1.99163e-05 -1.0945e-06 0)
(3.12937e-06 -1.10847e-06 0)
(4.31018e-06 -9.71041e-07 0)
(5.46557e-06 -8.66871e-07 0)
(6.57556e-06 -7.94058e-07 0)
(7.62483e-06 -7.50778e-07 0)
(8.59315e-06 -7.34166e-07 0)
(9.4177e-06 -7.38246e-07 0)
(1.00691e-05 -7.47722e-07 0)
(1.12094e-05 -7.24426e-07 0)
(1.95955e-05 -5.81035e-07 0)
(2.89049e-06 -3.70018e-07 0)
(4.0718e-06 -3.2435e-07 0)
(5.22809e-06 -2.89803e-07 0)
(6.33915e-06 -2.65682e-07 0)
(7.38987e-06 -2.51245e-07 0)
(8.36147e-06 -2.45291e-07 0)
(9.19545e-06 -2.454e-07 0)
(9.86891e-06 -2.45889e-07 0)
(1.10414e-05 -2.3369e-07 0)
(1.94267e-05 -1.8145e-07 0)
(2.89049e-06 3.70064e-07 0)
(4.0718e-06 3.24396e-07 0)
(5.22809e-06 2.89847e-07 0)
(6.33915e-06 2.65725e-07 0)
(7.38987e-06 2.51287e-07 0)
(8.36147e-06 2.45331e-07 0)
(9.19545e-06 2.45439e-07 0)
(9.86891e-06 2.45927e-07 0)
(1.10414e-05 2.33728e-07 0)
(1.94267e-05 1.81488e-07 0)
(3.12937e-06 1.10852e-06 0)
(4.31018e-06 9.71087e-07 0)
(5.46556e-06 8.66915e-07 0)
(6.57556e-06 7.94101e-07 0)
(7.62483e-06 7.50819e-07 0)
(8.59314e-06 7.34206e-07 0)
(9.4177e-06 7.38284e-07 0)
(1.00691e-05 7.47759e-07 0)
(1.12094e-05 7.24463e-07 0)
(1.95955e-05 5.81071e-07 0)
(3.60353e-06 1.84259e-06 0)
(4.78198e-06 1.61223e-06 0)
(5.93401e-06 1.43689e-06 0)
(7.04039e-06 1.3139e-06 0)
(8.08572e-06 1.24151e-06 0)
(9.04738e-06 1.2174e-06 0)
(9.85437e-06 1.23609e-06 0)
(1.04637e-05 1.27873e-06 0)
(1.15396e-05 1.28621e-06 0)
(1.99163e-05 1.09454e-06 0)
(4.30677e-06 2.57145e-06 0)
(5.47816e-06 2.24669e-06 0)
(6.62106e-06 1.99771e-06 0)
(7.71788e-06 1.82172e-06 0)
(8.75401e-06 1.71865e-06 0)
(9.70469e-06 1.69022e-06 0)
(1.0488e-05 1.73873e-06 0)
(1.10395e-05 1.85472e-06 0)
(1.20202e-05 1.96952e-06 0)
(2.03531e-05 1.81186e-06 0)
(5.23263e-06 3.29892e-06 0)
(6.38758e-06 2.87872e-06 0)
(7.50989e-06 2.55311e-06 0)
(8.58503e-06 2.31966e-06 0)
(9.60088e-06 2.18164e-06 0)
(1.05326e-05 2.14892e-06 0)
(1.12872e-05 2.24232e-06 0)
(1.17713e-05 2.48613e-06 0)
(1.26299e-05 2.83108e-06 0)
(2.08497e-05 2.8538e-06 0)
(6.37861e-06 4.02906e-06 0)
(7.5008e-06 3.51504e-06 0)
(8.58247e-06 3.11102e-06 0)
(9.61383e-06 2.81506e-06 0)
(1.05875e-05 2.63486e-06 0)
(1.14823e-05 2.5917e-06 0)
(1.2199e-05 2.73797e-06 0)
(1.26101e-05 3.17476e-06 0)
(1.33213e-05 3.94141e-06 0)
(2.13098e-05 4.41184e-06 0)
(7.7579e-06 4.74372e-06 0)
(8.82078e-06 4.14597e-06 0)
(9.82948e-06 3.6678e-06 0)
(1.07803e-05 3.3078e-06 0)
(1.16724e-05 3.07824e-06 0)
(1.24937e-05 3.01217e-06 0)
(1.31507e-05 3.20383e-06 0)
(1.3479e-05 3.89505e-06 0)
(1.39951e-05 5.35877e-06 0)
(2.15143e-05 6.69936e-06 0)
(9.42956e-06 5.45646e-06 0)
(1.03897e-05 4.79183e-06 0)
(1.12746e-05 4.24917e-06 0)
(1.20869e-05 3.82816e-06 0)
(1.28323e-05 3.54513e-06 0)
(1.35158e-05 3.44085e-06 0)
(1.40754e-05 3.64277e-06 0)
(1.43195e-05 4.58169e-06 0)
(1.45815e-05 6.96319e-06 0)
(2.14608e-05 9.56089e-06 0)
(1.1552e-05 6.58342e-06 0)
(1.2333e-05 5.82676e-06 0)
(1.30107e-05 5.19475e-06 0)
(1.35909e-05 4.68919e-06 0)
(1.40824e-05 4.3294e-06 0)
(1.45131e-05 4.15328e-06 0)
(1.48878e-05 4.27438e-06 0)
(1.50023e-05 5.27154e-06 0)
(1.52145e-05 8.73135e-06 0)
(2.51337e-05 1.19744e-05 0)
(1.40928e-05 1.30118e-05 0)
(1.45651e-05 1.167e-05 0)
(1.49058e-05 1.05474e-05 0)
(1.5111e-05 9.65923e-06 0)
(1.51748e-05 9.04839e-06 0)
(1.51229e-05 8.77419e-06 0)
(1.49237e-05 8.82816e-06 0)
(1.41264e-05 9.75631e-06 0)
(1.22494e-05 1.74466e-05 0)
(4.91515e-05 5.01576e-05 0)
)
;

boundaryField
{
    leftWall
    {
        type            noSlip;
    }
    rightWall
    {
        type            noSlip;
    }
    topWall
    {
        type            noSlip;
    }
    bottomWall
    {
        type            noSlip;
    }
    frontAndBackPlanes
    {
        type            empty;
    }
    procBoundary0to1
    {
        type            processor;
        value           nonuniform List<vector> 
20
(
(1.34765e-05 -1.45693e-05 0)
(1.06561e-05 -7.47518e-06 0)
(8.39163e-06 -6.25608e-06 0)
(6.64713e-06 -5.47325e-06 0)
(5.22897e-06 -4.66294e-06 0)
(4.06274e-06 -3.8213e-06 0)
(3.12759e-06 -2.97768e-06 0)
(2.42113e-06 -2.13204e-06 0)
(1.94655e-06 -1.2817e-06 0)
(1.70796e-06 -4.27665e-07 0)
(1.70795e-06 4.27711e-07 0)
(1.94654e-06 1.28175e-06 0)
(2.42112e-06 2.13209e-06 0)
(3.12759e-06 2.97772e-06 0)
(4.06273e-06 3.82134e-06 0)
(5.22896e-06 4.66299e-06 0)
(6.64713e-06 5.4733e-06 0)
(8.39163e-06 6.25612e-06 0)
(1.06561e-05 7.47522e-06 0)
(1.34765e-05 1.45693e-05 0)
)
;
    }
}


// ************************************************************************* //
