/*--------------------------------*- C++ -*----------------------------------*\
| =========                 |                                                 |
| \\      /  F ield         | OpenFOAM: The Open Source CFD Toolbox           |
|  \\    /   O peration     | Version:  2506                                  |
|   \\  /    A nd           | Website:  www.openfoam.com                      |
|    \\/     M anipulation  |                                                 |
\*---------------------------------------------------------------------------*/
FoamFile
{
    version     2.0;
    format      ascii;
    arch        "LSB;label=32;scalar=64";
    class       surfaceScalarField;
    location    "0.132";
    object      phi;
}
// * * * * * * * * * * * * * * * * * * * * * * * * * * * * * * * * * * * * * //

dimensions      [1 0 -1 0 0 0 0];

oriented        oriented;

internalField   nonuniform List<scalar> 
370
(
-1.50379e-07
-1.22128e-05
3.84575e-06
-1.15677e-05
3.33368e-06
-8.65772e-06
2.50631e-06
-7.14699e-06
1.89452e-06
-6.05602e-06
1.47016e-06
-5.12795e-06
1.1663e-06
-4.33066e-06
9.43153e-07
-3.65849e-06
7.75518e-07
-3.09183e-06
-2.61191e-06
-4.05046e-06
-7.07515e-06
2.69222e-06
-8.43352e-06
4.00649e-06
-6.99006e-06
3.61952e-06
-5.96007e-06
2.94856e-06
-5.17221e-06
2.35549e-06
-4.47789e-06
1.89321e-06
-3.85303e-06
1.54086e-06
-3.30197e-06
1.27129e-06
-2.82112e-06
-2.40308e-06
-5.54481e-06
-4.19203e-06
2.44102e-06
-5.77701e-06
4.18583e-06
-5.34019e-06
3.98028e-06
-4.80116e-06
3.36356e-06
-4.29287e-06
2.76251e-06
-3.80469e-06
2.26684e-06
-3.33752e-06
1.87444e-06
-2.90412e-06
1.56558e-06
-2.51076e-06
-2.15832e-06
-6.72139e-06
-2.6327e-06
2.24927e-06
-3.93676e-06
4.35011e-06
-3.93247e-06
4.28272e-06
-3.72834e-06
3.72524e-06
-3.45289e-06
3.13824e-06
-3.13866e-06
2.63048e-06
-2.80769e-06
2.21307e-06
-2.48055e-06
1.87405e-06
-2.17003e-06
-1.88256e-06
-7.70073e-06
-1.72648e-06
1.90215e-06
-2.69235e-06
4.34379e-06
-2.83562e-06
4.45072e-06
-2.81369e-06
3.98053e-06
-2.69312e-06
3.43115e-06
-2.50751e-06
2.93115e-06
-2.28464e-06
2.50445e-06
-2.04736e-06
2.14727e-06
-1.81102e-06
-1.58475e-06
-8.46783e-06
-1.15153e-06
1.52621e-06
-1.83223e-06
4.2384e-06
-2.00191e-06
4.50969e-06
-2.05873e-06
4.13393e-06
-2.02546e-06
3.63443e-06
-1.92524e-06
3.15558e-06
-1.78235e-06
2.73214e-06
-1.61728e-06
2.36765e-06
-1.44466e-06
-1.27392e-06
-9.03797e-06
-7.55244e-07
1.19725e-06
-1.21275e-06
4.10157e-06
-1.35872e-06
4.50506e-06
-1.4347e-06
4.21399e-06
-1.44178e-06
3.76494e-06
-1.39308e-06
3.31254e-06
-1.30637e-06
2.89943e-06
-1.19747e-06
2.53494e-06
-1.07828e-06
-9.56892e-07
-9.43747e-06
-4.5896e-07
9.4393e-07
-7.40022e-07
3.97562e-06
-8.42689e-07
4.4747e-06
-9.05979e-07
4.24984e-06
-9.24101e-07
3.84343e-06
-9.03453e-07
3.41588e-06
-8.55179e-07
3.01488e-06
-7.89758e-07
2.65389e-06
-7.1538e-07
-6.37852e-07
-9.68987e-06
-2.17308e-07
7.74716e-07
-3.51009e-07
3.88307e-06
-4.03382e-07
4.44316e-06
-4.38221e-07
4.26285e-06
-4.50933e-07
3.88662e-06
-4.43978e-07
3.47774e-06
-4.22641e-07
3.08679e-06
-3.92087e-07
2.72977e-06
-3.56455e-07
-3.18749e-07
-9.81184e-06
3.2952e-14
6.90473e-07
1.79485e-14
3.83469e-06
-1.22654e-14
4.42432e-06
-5.55073e-14
4.26625e-06
-9.56789e-14
3.90553e-06
-1.35133e-13
3.50655e-06
-1.92944e-13
3.12118e-06
-2.79786e-13
2.76664e-06
-3.73024e-13
-4.54305e-13
-9.81184e-06
2.17308e-07
6.90473e-07
3.51009e-07
3.83469e-06
4.03382e-07
4.42432e-06
4.38221e-07
4.26625e-06
4.50933e-07
3.90553e-06
4.43977e-07
3.50655e-06
4.22641e-07
3.12118e-06
3.92086e-07
2.76664e-06
3.56454e-07
3.18748e-07
-9.68987e-06
4.5896e-07
7.74716e-07
7.40022e-07
3.88307e-06
8.42689e-07
4.44316e-06
9.05979e-07
4.26285e-06
9.24101e-07
3.88662e-06
9.03453e-07
3.47774e-06
8.55179e-07
3.08679e-06
7.89757e-07
2.72977e-06
7.15379e-07
6.37851e-07
-9.43747e-06
7.55244e-07
9.4393e-07
1.21275e-06
3.97562e-06
1.35872e-06
4.4747e-06
1.4347e-06
4.24984e-06
1.44178e-06
3.84343e-06
1.39308e-06
3.41588e-06
1.30637e-06
3.01488e-06
1.19747e-06
2.65389e-06
1.07828e-06
9.56892e-07
-9.03797e-06
1.15153e-06
1.19725e-06
1.83223e-06
4.10157e-06
2.00191e-06
4.50506e-06
2.05873e-06
4.21399e-06
2.02546e-06
3.76493e-06
1.92524e-06
3.31254e-06
1.78235e-06
2.89942e-06
1.61728e-06
2.53494e-06
1.44466e-06
1.27392e-06
-8.46783e-06
1.72648e-06
1.52621e-06
2.69235e-06
4.2384e-06
2.83562e-06
4.50969e-06
2.81369e-06
4.13393e-06
2.69312e-06
3.63443e-06
2.50751e-06
3.15558e-06
2.28464e-06
2.73214e-06
2.04736e-06
2.36765e-06
1.81102e-06
1.58475e-06
-7.70073e-06
2.6327e-06
1.90215e-06
3.93676e-06
4.34379e-06
3.93247e-06
4.45072e-06
3.72834e-06
3.98053e-06
3.45289e-06
3.43115e-06
3.13866e-06
2.93115e-06
2.80769e-06
2.50445e-06
2.48055e-06
2.14727e-06
2.17003e-06
1.88256e-06
-6.72139e-06
4.19203e-06
2.24927e-06
5.77701e-06
4.35011e-06
5.34019e-06
4.28272e-06
4.80116e-06
3.72524e-06
4.29287e-06
3.13824e-06
3.80469e-06
2.63048e-06
3.33752e-06
2.21307e-06
2.90412e-06
1.87405e-06
2.51076e-06
2.15832e-06
-5.54481e-06
7.07515e-06
2.44102e-06
8.43352e-06
4.18583e-06
6.99006e-06
3.98028e-06
5.96007e-06
3.36356e-06
5.17221e-06
2.76251e-06
4.47789e-06
2.26684e-06
3.85303e-06
1.87444e-06
3.30197e-06
1.56558e-06
2.82113e-06
2.40308e-06
-4.05046e-06
1.22128e-05
2.69222e-06
1.15677e-05
4.00649e-06
8.65772e-06
3.61952e-06
7.14699e-06
2.94856e-06
6.05602e-06
2.35549e-06
5.12795e-06
1.89321e-06
4.33066e-06
1.54086e-06
3.65849e-06
1.27129e-06
3.09183e-06
2.61192e-06
-1.50379e-07
3.84575e-06
3.33368e-06
2.50631e-06
1.89452e-06
1.47016e-06
1.1663e-06
9.43153e-07
7.75518e-07
)
;

boundaryField
{
    leftWall
    {
        type            calculated;
        value           nonuniform List<scalar> 
20
(
2.07092e-05
1.91395e-05
2.24065e-05
2.48774e-05
2.64919e-05
2.75765e-05
2.83159e-05
2.88092e-05
2.91125e-05
2.9257e-05
2.9257e-05
2.91125e-05
2.88092e-05
2.83159e-05
2.75765e-05
2.64919e-05
2.48774e-05
2.24065e-05
1.91395e-05
2.07092e-05
)
;
    }
    rightWall
    {
        type            calculated;
        value           nonuniform List<scalar> 0();
    }
    topWall
    {
        type            calculated;
        value           nonuniform List<scalar> 10(2.1302e-05 1.15104e-05 9.93648e-06 8.16191e-06 6.71687e-06 5.56541e-06 4.63805e-06 3.8826e-06 3.25972e-06 2.74049e-06);
    }
    bottomWall
    {
        type            calculated;
        value           nonuniform List<scalar> 10(2.1302e-05 1.15104e-05 9.93648e-06 8.16191e-06 6.71687e-06 5.56541e-06 4.63805e-06 3.8826e-06 3.25972e-06 2.74049e-06);
    }
    frontAndBackPlanes
    {
        type            empty;
    }
    procBoundary1to0
    {
        type            processor;
        value           nonuniform List<scalar> 
20
(
6.47015e-07
1.06277e-06
1.32123e-06
1.59877e-06
1.84997e-06
2.05735e-06
2.21844e-06
2.33538e-06
2.41121e-06
2.44843e-06
2.44843e-06
2.41121e-06
2.33538e-06
2.21844e-06
2.05735e-06
1.84997e-06
1.59877e-06
1.32123e-06
1.06277e-06
6.47015e-07
)
;
    }
}


// ************************************************************************* //
