/*--------------------------------*- C++ -*----------------------------------*\
| =========                 |                                                 |
| \\      /  F ield         | OpenFOAM: The Open Source CFD Toolbox           |
|  \\    /   O peration     | Version:  2506                                  |
|   \\  /    A nd           | Website:  www.openfoam.com                      |
|    \\/     M anipulation  |                                                 |
\*---------------------------------------------------------------------------*/
FoamFile
{
    version     2.0;
    format      ascii;
    arch        "LSB;label=32;scalar=64";
    class       volVectorField;
    location    "0.132";
    object      U;
}
// * * * * * * * * * * * * * * * * * * * * * * * * * * * * * * * * * * * * * //

dimensions      [0 1 -1 0 0 0 0];

internalField   nonuniform List<vector> 
200
(
(-0.000155733 -0.000233024 0)
(4.48595e-05 -0.000155381 0)
(3.14355e-05 -0.000109601 0)
(2.347e-05 -8.68942e-05 0)
(1.74143e-05 -7.13547e-05 0)
(1.33127e-05 -5.91352e-05 0)
(1.04385e-05 -4.92709e-05 0)
(8.359e-06 -4.12442e-05 0)
(6.81748e-06 -3.46286e-05 0)
(5.64803e-06 -2.91113e-05 0)
(-0.000185049 -7.41868e-05 0)
(1.97191e-05 -8.16182e-05 0)
(3.23021e-05 -6.5075e-05 0)
(3.2069e-05 -5.4726e-05 0)
(2.63681e-05 -4.68421e-05 0)
(2.09717e-05 -4.00702e-05 0)
(1.67875e-05 -3.41302e-05 0)
(1.35741e-05 -2.90099e-05 0)
(1.1126e-05 -2.46252e-05 0)
(9.24459e-06 -2.08703e-05 0)
(-0.000218542 -4.28993e-05 0)
(1.35723e-05 -5.47257e-05 0)
(3.19698e-05 -4.87127e-05 0)
(3.48732e-05 -4.26711e-05 0)
(2.96434e-05 -3.75692e-05 0)
(2.43064e-05 -3.29053e-05 0)
(1.9926e-05 -2.85883e-05 0)
(1.64016e-05 -2.46873e-05 0)
(1.36291e-05 -2.12169e-05 0)
(1.14453e-05 -1.81546e-05 0)
(-0.000241981 -2.65937e-05 0)
(8.77288e-06 -3.77072e-05 0)
(3.21724e-05 -3.64505e-05 0)
(3.70078e-05 -3.37169e-05 0)
(3.24095e-05 -3.07202e-05 0)
(2.73044e-05 -2.76002e-05 0)
(2.29105e-05 -2.44706e-05 0)
(1.92221e-05 -2.14706e-05 0)
(1.62192e-05 -1.86822e-05 0)
(1.3786e-05 -1.61395e-05 0)
(-0.000257905 -1.70731e-05 0)
(3.61219e-06 -2.58057e-05 0)
(3.098e-05 -2.65923e-05 0)
(3.78669e-05 -2.58771e-05 0)
(3.42058e-05 -2.44109e-05 0)
(2.95502e-05 -2.24846e-05 0)
(2.53165e-05 -2.0317e-05 0)
(2.16072e-05 -1.809e-05 0)
(1.84845e-05 -1.59215e-05 0)
(1.58845e-05 -1.38774e-05 0)
(-0.000268878 -1.12986e-05 0)
(-1.07664e-06 -1.76379e-05 0)
(2.91951e-05 -1.89898e-05 0)
(3.78367e-05 -1.92455e-05 0)
(3.51421e-05 -1.87167e-05 0)
(3.10272e-05 -1.76326e-05 0)
(2.70589e-05 -1.62103e-05 0)
(2.34344e-05 -1.46285e-05 0)
(2.02866e-05 -1.30107e-05 0)
(1.75994e-05 -1.1434e-05 0)
(-0.000276461 -7.50067e-06 0)
(-4.83073e-06 -1.18883e-05 0)
(2.74097e-05 -1.31871e-05 0)
(3.73705e-05 -1.37828e-05 0)
(3.55076e-05 -1.37354e-05 0)
(3.19108e-05 -1.31839e-05 0)
(2.82366e-05 -1.22981e-05 0)
(2.47493e-05 -1.12257e-05 0)
(2.16353e-05 -1.00745e-05 0)
(1.89182e-05 -8.91668e-06 0)
(-0.000281559 -4.78383e-06 0)
(-7.57213e-06 -7.63621e-06 0)
(2.59331e-05 -8.64151e-06 0)
(3.68039e-05 -9.23124e-06 0)
(3.55718e-05 -9.36588e-06 0)
(3.23984e-05 -9.11735e-06 0)
(2.89855e-05 -8.6003e-06 0)
(2.56392e-05 -7.92027e-06 0)
(2.25822e-05 -7.15836e-06 0)
(1.9867e-05 -6.3712e-06 0)
(-0.000284705 -2.66714e-06 0)
(-9.34544e-06 -4.27154e-06 0)
(2.49059e-05 -4.89379e-06 0)
(3.63392e-05 -5.30106e-06 0)
(3.55226e-05 -5.44169e-06 0)
(3.26425e-05 -5.34718e-06 0)
(2.94202e-05 -5.08201e-06 0)
(2.61845e-05 -4.70847e-06 0)
(2.31802e-05 -4.2761e-06 0)
(2.04778e-05 -3.82056e-06 0)
(-0.000286207 -8.57468e-07 0)
(-1.0213e-05 -1.37508e-06 0)
(2.43836e-05 -1.58469e-06 0)
(3.6084e-05 -1.72823e-06 0)
(3.54722e-05 -1.78434e-06 0)
(3.2741e-05 -1.76157e-06 0)
(2.96182e-05 -1.68055e-06 0)
(2.64425e-05 -1.56177e-06 0)
(2.34687e-05 -1.42183e-06 0)
(2.07764e-05 -1.27286e-06 0)
(-0.000286207 8.57468e-07 0)
(-1.0213e-05 1.37509e-06 0)
(2.43836e-05 1.58469e-06 0)
(3.6084e-05 1.72823e-06 0)
(3.54722e-05 1.78434e-06 0)
(3.2741e-05 1.76157e-06 0)
(2.96182e-05 1.68055e-06 0)
(2.64425e-05 1.56177e-06 0)
(2.34687e-05 1.42183e-06 0)
(2.07764e-05 1.27285e-06 0)
(-0.000284705 2.66714e-06 0)
(-9.34544e-06 4.27154e-06 0)
(2.49059e-05 4.89379e-06 0)
(3.63392e-05 5.30106e-06 0)
(3.55226e-05 5.44169e-06 0)
(3.26425e-05 5.34718e-06 0)
(2.94202e-05 5.08201e-06 0)
(2.61845e-05 4.70847e-06 0)
(2.31802e-05 4.2761e-06 0)
(2.04778e-05 3.82056e-06 0)
(-0.000281559 4.78383e-06 0)
(-7.57213e-06 7.63621e-06 0)
(2.59331e-05 8.64151e-06 0)
(3.68039e-05 9.23124e-06 0)
(3.55718e-05 9.36587e-06 0)
(3.23984e-05 9.11735e-06 0)
(2.89855e-05 8.6003e-06 0)
(2.56392e-05 7.92027e-06 0)
(2.25822e-05 7.15835e-06 0)
(1.9867e-05 6.37119e-06 0)
(-0.000276461 7.50067e-06 0)
(-4.83073e-06 1.18883e-05 0)
(2.74097e-05 1.31871e-05 0)
(3.73705e-05 1.37828e-05 0)
(3.55076e-05 1.37354e-05 0)
(3.19108e-05 1.31839e-05 0)
(2.82366e-05 1.22981e-05 0)
(2.47493e-05 1.12257e-05 0)
(2.16353e-05 1.00745e-05 0)
(1.89182e-05 8.91668e-06 0)
(-0.000268878 1.12986e-05 0)
(-1.07664e-06 1.76379e-05 0)
(2.91951e-05 1.89898e-05 0)
(3.78367e-05 1.92455e-05 0)
(3.51421e-05 1.87167e-05 0)
(3.10272e-05 1.76326e-05 0)
(2.70589e-05 1.62103e-05 0)
(2.34344e-05 1.46285e-05 0)
(2.02866e-05 1.30107e-05 0)
(1.75994e-05 1.1434e-05 0)
(-0.000257905 1.70731e-05 0)
(3.61219e-06 2.58057e-05 0)
(3.098e-05 2.65923e-05 0)
(3.78669e-05 2.58771e-05 0)
(3.42058e-05 2.44109e-05 0)
(2.95502e-05 2.24846e-05 0)
(2.53165e-05 2.0317e-05 0)
(2.16072e-05 1.809e-05 0)
(1.84845e-05 1.59215e-05 0)
(1.58845e-05 1.38774e-05 0)
(-0.000241981 2.65937e-05 0)
(8.77287e-06 3.77073e-05 0)
(3.21724e-05 3.64505e-05 0)
(3.70078e-05 3.37169e-05 0)
(3.24095e-05 3.07202e-05 0)
(2.73044e-05 2.76002e-05 0)
(2.29105e-05 2.44706e-05 0)
(1.92221e-05 2.14706e-05 0)
(1.62192e-05 1.86822e-05 0)
(1.3786e-05 1.61396e-05 0)
(-0.000218542 4.28993e-05 0)
(1.35723e-05 5.47257e-05 0)
(3.19698e-05 4.87127e-05 0)
(3.48732e-05 4.26711e-05 0)
(2.96434e-05 3.75692e-05 0)
(2.43064e-05 3.29053e-05 0)
(1.9926e-05 2.85883e-05 0)
(1.64016e-05 2.46873e-05 0)
(1.36291e-05 2.12169e-05 0)
(1.14453e-05 1.81546e-05 0)
(-0.000185049 7.41868e-05 0)
(1.97191e-05 8.16182e-05 0)
(3.2302e-05 6.5075e-05 0)
(3.2069e-05 5.4726e-05 0)
(2.63681e-05 4.68421e-05 0)
(2.09717e-05 4.00702e-05 0)
(1.67875e-05 3.41302e-05 0)
(1.35741e-05 2.90099e-05 0)
(1.1126e-05 2.46252e-05 0)
(9.24459e-06 2.08703e-05 0)
(-0.000155733 0.000233024 0)
(4.48595e-05 0.000155381 0)
(3.14355e-05 0.000109601 0)
(2.347e-05 8.68942e-05 0)
(1.74143e-05 7.13547e-05 0)
(1.33127e-05 5.91352e-05 0)
(1.04385e-05 4.92709e-05 0)
(8.359e-06 4.12442e-05 0)
(6.81747e-06 3.46286e-05 0)
(5.64802e-06 2.91113e-05 0)
)
;

boundaryField
{
    leftWall
    {
        type            noSlip;
    }
    rightWall
    {
        type            noSlip;
    }
    topWall
    {
        type            noSlip;
    }
    bottomWall
    {
        type            noSlip;
    }
    frontAndBackPlanes
    {
        type            empty;
    }
    procBoundary1to0
    {
        type            processor;
        value           nonuniform List<vector> 
20
(
(4.7439e-06 -2.44605e-05 0)
(7.7797e-06 -1.76444e-05 0)
(9.71113e-06 -1.54619e-05 0)
(1.18081e-05 -1.38473e-05 0)
(1.37237e-05 -1.19891e-05 0)
(1.53206e-05 -9.94186e-06 0)
(1.65731e-05 -7.79655e-06 0)
(1.749e-05 -5.59558e-06 0)
(1.80884e-05 -3.36574e-06 0)
(1.83834e-05 -1.12308e-06 0)
(1.83834e-05 1.12308e-06 0)
(1.80884e-05 3.36574e-06 0)
(1.749e-05 5.59557e-06 0)
(1.65731e-05 7.79654e-06 0)
(1.53206e-05 9.94186e-06 0)
(1.37237e-05 1.19891e-05 0)
(1.18081e-05 1.38473e-05 0)
(9.71113e-06 1.54619e-05 0)
(7.7797e-06 1.76444e-05 0)
(4.7439e-06 2.44605e-05 0)
)
;
    }
}


// ************************************************************************* //
