/*--------------------------------*- C++ -*----------------------------------*\
| =========                 |                                                 |
| \\      /  F ield         | OpenFOAM: The Open Source CFD Toolbox           |
|  \\    /   O peration     | Version:  2506                                  |
|   \\  /    A nd           | Website:  www.openfoam.com                      |
|    \\/     M anipulation  |                                                 |
\*---------------------------------------------------------------------------*/
FoamFile
{
    version     2.0;
    format      ascii;
    arch        "LSB;label=32;scalar=64";
    class       volScalarField;
    location    "0.132";
    object      alphat;
}
// * * * * * * * * * * * * * * * * * * * * * * * * * * * * * * * * * * * * * //

dimensions      [1 -1 -1 0 0 0 0];

internalField   nonuniform List<scalar> 
400
(
0.300913
0.415362
0.437448
0.441852
0.442829
0.443044
0.443086
0.44309
0.443086
0.443081
0.443076
0.443072
0.443065
0.44305
0.442996
0.442769
0.441782
0.437375
0.415329
0.301298
0.414799
4.23229
5.1939
5.40611
5.45234
5.46259
5.46488
5.4654
5.46551
5.4655
5.46554
5.46549
5.46536
5.46483
5.46253
5.45231
5.4062
5.19439
4.23382
0.415329
0.436831
5.1921
6.54876
6.8646
6.93568
6.95183
6.95553
6.95638
6.95658
6.95661
6.95662
6.95657
6.95637
6.95552
6.95183
6.93575
6.86489
6.54967
5.19439
0.437375
0.441247
5.40371
6.86383
7.21237
7.29256
7.31113
7.31547
7.31649
7.31672
7.31677
7.31678
7.31672
7.31648
7.31547
7.31116
7.29267
7.21273
6.86489
5.4062
0.441782
0.442246
5.44979
6.93466
7.29228
7.37537
7.39481
7.3994
7.40049
7.40075
7.4008
7.40081
7.40075
7.40049
7.39941
7.39485
7.37549
7.29267
6.93575
5.45231
0.442768
0.442481
5.46002
6.95074
7.31076
7.39472
7.41445
7.41913
7.42025
7.42052
7.42058
7.42058
7.42052
7.42025
7.41914
7.41449
7.39485
7.31116
6.95183
5.46253
0.442994
0.442541
5.46233
6.95443
7.31507
7.39928
7.4191
7.42381
7.42494
7.42521
7.42527
7.42527
7.42521
7.42494
7.42383
7.41914
7.39941
7.31547
6.95551
5.46483
0.443046
0.442558
5.46287
6.95529
7.31609
7.40036
7.42021
7.42493
7.42606
7.42633
7.42639
7.4264
7.42633
7.42607
7.42494
7.42025
7.40049
7.31648
6.95636
5.46535
0.443059
0.442565
5.46299
6.95549
7.31633
7.40062
7.42047
7.4252
7.42633
7.4266
7.42666
7.42666
7.4266
7.42633
7.42521
7.42051
7.40075
7.31672
6.95656
5.46547
0.443062
0.442567
5.46302
6.95554
7.31638
7.40067
7.42053
7.42526
7.42639
7.42666
7.42672
7.42672
7.42666
7.42639
7.42527
7.42057
7.4008
7.31677
6.95661
5.4655
0.443063
0.442567
5.46302
6.95554
7.31638
7.40067
7.42053
7.42526
7.42639
7.42666
7.42672
7.42672
7.42666
7.42639
7.42527
7.42057
7.4008
7.31677
6.95661
5.4655
0.443063
0.442565
5.46299
6.95549
7.31633
7.40062
7.42047
7.4252
7.42633
7.4266
7.42666
7.42666
7.4266
7.42633
7.42521
7.42051
7.40075
7.31672
6.95656
5.46547
0.443062
0.442558
5.46287
6.95529
7.31609
7.40036
7.42021
7.42493
7.42606
7.42633
7.42639
7.42639
7.42633
7.42607
7.42494
7.42025
7.40049
7.31648
6.95636
5.46535
0.443059
0.442541
5.46233
6.95443
7.31507
7.39928
7.4191
7.42381
7.42494
7.42521
7.42527
7.42527
7.42521
7.42494
7.42383
7.41914
7.39941
7.31547
6.95551
5.46483
0.443046
0.442481
5.46002
6.95074
7.31076
7.39472
7.41445
7.41913
7.42025
7.42052
7.42058
7.42058
7.42052
7.42025
7.41914
7.41449
7.39485
7.31116
6.95183
5.46253
0.442994
0.442246
5.44979
6.93466
7.29228
7.37537
7.39481
7.3994
7.40049
7.40075
7.40081
7.4008
7.40075
7.40049
7.39941
7.39485
7.37549
7.29267
6.93575
5.45231
0.442768
0.441247
5.40371
6.86383
7.21237
7.29256
7.31113
7.31547
7.31649
7.31673
7.31678
7.31677
7.31672
7.31648
7.31547
7.31116
7.29267
7.21273
6.86489
5.4062
0.441782
0.436831
5.1921
6.54876
6.8646
6.93569
6.95183
6.95553
6.95638
6.95658
6.95663
6.9566
6.95657
6.95637
6.95551
6.95183
6.93575
6.86489
6.54967
5.19439
0.437375
0.414799
4.23229
5.1939
5.40611
5.45234
5.46259
5.46488
5.4654
5.46551
5.46555
5.46549
5.46548
5.46536
5.46483
5.46253
5.45231
5.4062
5.19439
4.23382
0.415329
0.300913
0.415362
0.437448
0.441852
0.442829
0.443044
0.443086
0.44309
0.443086
0.443081
0.443076
0.443072
0.443065
0.44305
0.442996
0.442769
0.441782
0.437375
0.415329
0.301298
)
;

boundaryField
{
    leftWall
    {
        type            compressible::alphatWallFunction;
        value           nonuniform List<scalar> 
20
(
0.107666
0.116364
0.117772
0.118044
0.118106
0.11812
0.118124
0.118125
0.118125
0.118125
0.118125
0.118125
0.118125
0.118124
0.11812
0.118106
0.118044
0.117772
0.116364
0.107666
)
;
    }
    rightWall
    {
        type            compressible::alphatWallFunction;
        value           nonuniform List<scalar> 
20
(
0.129715
0.140134
0.141819
0.142143
0.142215
0.142232
0.142236
0.142237
0.142237
0.142237
0.142237
0.142237
0.142237
0.142236
0.142232
0.142215
0.142143
0.141819
0.140134
0.129715
)
;
    }
    topWall
    {
        type            compressible::alphatWallFunction;
        value           nonuniform List<scalar> 
20
(
0.129749
0.140145
0.141827
0.14215
0.142221
0.142237
0.14224
0.14224
0.142239
0.142239
0.142238
0.142238
0.142237
0.142236
0.142232
0.142216
0.142143
0.141819
0.140134
0.129715
)
;
    }
    bottomWall
    {
        type            compressible::alphatWallFunction;
        value           nonuniform List<scalar> 
20
(
0.129749
0.140145
0.141827
0.14215
0.142221
0.142237
0.14224
0.14224
0.142239
0.142239
0.142238
0.142238
0.142237
0.142236
0.142232
0.142216
0.142143
0.141819
0.140134
0.129715
)
;
    }
    frontAndBackPlanes
    {
        type            empty;
    }
}


// ************************************************************************* //
