/*--------------------------------*- C++ -*----------------------------------*\
| =========                 |                                                 |
| \\      /  F ield         | OpenFOAM: The Open Source CFD Toolbox           |
|  \\    /   O peration     | Version:  2506                                  |
|   \\  /    A nd           | Website:  www.openfoam.com                      |
|    \\/     M anipulation  |                                                 |
\*---------------------------------------------------------------------------*/
FoamFile
{
    version     2.0;
    format      ascii;
    arch        "LSB;label=32;scalar=64";
    class       volScalarField;
    location    "0.132";
    object      k;
}
// * * * * * * * * * * * * * * * * * * * * * * * * * * * * * * * * * * * * * //

dimensions      [0 2 -2 0 0 0 0];

internalField   nonuniform List<scalar> 
400
(
0.146555
0.173611
0.178224
0.179118
0.179315
0.179357
0.179365
0.179366
0.179364
0.179363
0.179362
0.179361
0.179359
0.179356
0.179345
0.179299
0.179099
0.178201
0.173582
0.146469
0.17367
0.402018
0.435074
0.442731
0.444488
0.444889
0.444981
0.445001
0.445006
0.445006
0.445006
0.445005
0.445
0.444978
0.444886
0.444484
0.442728
0.435073
0.402016
0.173582
0.178294
0.435066
0.474798
0.48447
0.486774
0.487316
0.487443
0.487472
0.487479
0.48748
0.48748
0.487479
0.487472
0.487442
0.487316
0.486774
0.484473
0.474805
0.435073
0.178201
0.179196
0.442719
0.484463
0.494855
0.497384
0.49799
0.498134
0.498169
0.498177
0.498178
0.498178
0.498177
0.498168
0.498134
0.49799
0.497385
0.49486
0.484473
0.442728
0.179099
0.179398
0.444476
0.486765
0.49738
0.499987
0.500619
0.50077
0.500807
0.500815
0.500817
0.500817
0.500815
0.500807
0.500771
0.500619
0.499989
0.497385
0.486774
0.444484
0.179299
0.179446
0.444879
0.487306
0.497985
0.500617
0.501257
0.501412
0.501449
0.501458
0.50146
0.50146
0.501458
0.501449
0.501412
0.501258
0.500619
0.49799
0.487316
0.444886
0.179344
0.179458
0.444972
0.487433
0.498129
0.500769
0.501411
0.501567
0.501604
0.501613
0.501616
0.501616
0.501613
0.501605
0.501567
0.501412
0.500771
0.498134
0.487442
0.444978
0.179355
0.179462
0.444994
0.487463
0.498163
0.500805
0.501448
0.501604
0.501642
0.501651
0.501653
0.501653
0.501651
0.501642
0.501605
0.501449
0.500807
0.498168
0.487472
0.444999
0.179358
0.179463
0.444999
0.48747
0.498171
0.500813
0.501457
0.501613
0.501651
0.50166
0.501662
0.501662
0.50166
0.501651
0.501613
0.501458
0.500815
0.498176
0.487478
0.445004
0.179358
0.179464
0.445
0.487471
0.498173
0.500815
0.501459
0.501615
0.501653
0.501662
0.501664
0.501664
0.501662
0.501653
0.501615
0.50146
0.500817
0.498178
0.48748
0.445005
0.179358
0.179464
0.445
0.487471
0.498173
0.500815
0.501459
0.501615
0.501653
0.501662
0.501664
0.501664
0.501662
0.501653
0.501615
0.50146
0.500817
0.498178
0.48748
0.445005
0.179358
0.179463
0.444999
0.48747
0.498171
0.500813
0.501457
0.501613
0.501651
0.50166
0.501662
0.501662
0.50166
0.501651
0.501613
0.501458
0.500815
0.498176
0.487478
0.445004
0.179358
0.179462
0.444994
0.487463
0.498163
0.500805
0.501448
0.501604
0.501642
0.501651
0.501653
0.501653
0.501651
0.501642
0.501605
0.501449
0.500807
0.498168
0.487472
0.444999
0.179358
0.179458
0.444972
0.487433
0.498129
0.500769
0.501411
0.501567
0.501604
0.501613
0.501616
0.501616
0.501613
0.501605
0.501567
0.501412
0.500771
0.498134
0.487442
0.444978
0.179355
0.179446
0.444879
0.487306
0.497985
0.500617
0.501257
0.501412
0.501449
0.501458
0.50146
0.50146
0.501458
0.501449
0.501412
0.501258
0.500619
0.49799
0.487316
0.444886
0.179344
0.179398
0.444476
0.486765
0.49738
0.499987
0.500619
0.50077
0.500807
0.500815
0.500817
0.500817
0.500815
0.500807
0.500771
0.500619
0.499989
0.497385
0.486774
0.444484
0.179299
0.179196
0.442719
0.484463
0.494855
0.497384
0.49799
0.498134
0.498169
0.498177
0.498178
0.498178
0.498176
0.498168
0.498134
0.49799
0.497385
0.49486
0.484473
0.442728
0.179099
0.178294
0.435066
0.474798
0.48447
0.486774
0.487316
0.487443
0.487472
0.487479
0.48748
0.48748
0.487479
0.487472
0.487442
0.487316
0.486774
0.484473
0.474805
0.435073
0.178201
0.17367
0.402018
0.435074
0.442731
0.444488
0.444889
0.444981
0.445001
0.445006
0.445007
0.445006
0.445005
0.445
0.444978
0.444886
0.444484
0.442728
0.435073
0.402016
0.173582
0.146555
0.173611
0.178224
0.179118
0.179315
0.179357
0.179365
0.179366
0.179364
0.179363
0.179362
0.179361
0.179359
0.179356
0.179345
0.179299
0.179099
0.178201
0.173582
0.146469
)
;

boundaryField
{
    leftWall
    {
        type            kqRWallFunction;
        value           nonuniform List<scalar> 
20
(
0.146555
0.17367
0.178294
0.179196
0.179398
0.179446
0.179458
0.179462
0.179463
0.179464
0.179464
0.179463
0.179462
0.179458
0.179446
0.179398
0.179196
0.178294
0.17367
0.146555
)
;
    }
    rightWall
    {
        type            kqRWallFunction;
        value           nonuniform List<scalar> 
20
(
0.146469
0.173582
0.178201
0.179099
0.179299
0.179344
0.179355
0.179358
0.179358
0.179358
0.179358
0.179358
0.179358
0.179355
0.179344
0.179299
0.179099
0.178201
0.173582
0.146469
)
;
    }
    topWall
    {
        type            kqRWallFunction;
        value           nonuniform List<scalar> 
20
(
0.146555
0.173611
0.178224
0.179118
0.179315
0.179357
0.179365
0.179366
0.179364
0.179363
0.179362
0.179361
0.179359
0.179356
0.179345
0.179299
0.179099
0.178201
0.173582
0.146469
)
;
    }
    bottomWall
    {
        type            kqRWallFunction;
        value           nonuniform List<scalar> 
20
(
0.146555
0.173611
0.178224
0.179118
0.179315
0.179357
0.179365
0.179366
0.179364
0.179363
0.179362
0.179361
0.179359
0.179356
0.179345
0.179299
0.179099
0.178201
0.173582
0.146469
)
;
    }
    frontAndBackPlanes
    {
        type            empty;
    }
}


// ************************************************************************* //
