/*--------------------------------*- C++ -*----------------------------------*\
| =========                 |                                                 |
| \\      /  F ield         | OpenFOAM: The Open Source CFD Toolbox           |
|  \\    /   O peration     | Version:  2506                                  |
|   \\  /    A nd           | Website:  www.openfoam.com                      |
|    \\/     M anipulation  |                                                 |
\*---------------------------------------------------------------------------*/
FoamFile
{
    version     2.0;
    format      ascii;
    arch        "LSB;label=32;scalar=64";
    class       volScalarField;
    location    "0.132";
    object      nut;
}
// * * * * * * * * * * * * * * * * * * * * * * * * * * * * * * * * * * * * * //

dimensions      [0 2 -1 0 0 0 0];

internalField   nonuniform List<scalar> 
400
(
0.00030103
0.000414852
0.000436862
0.000441254
0.000442228
0.000442442
0.000442484
0.000442488
0.000442484
0.000442479
0.000442475
0.00044247
0.000442464
0.000442449
0.000442395
0.000442168
0.000441182
0.000436781
0.000414765
0.000300889
0.000414893
0.00422769
0.00518721
0.00539887
0.00544496
0.00545517
0.00545746
0.00545798
0.00545808
0.00545808
0.00545812
0.00545806
0.00545794
0.00545741
0.00545511
0.00544491
0.00539886
0.00518733
0.00422807
0.000414765
0.000436925
0.00518655
0.00654039
0.00685543
0.00692631
0.0069424
0.00694609
0.00694694
0.00694713
0.00694716
0.00694717
0.00694712
0.00694692
0.00694607
0.00694238
0.00692633
0.00685556
0.00654077
0.00518733
0.000436781
0.000441342
0.00539795
0.00685508
0.00720274
0.0072827
0.00730121
0.00730553
0.00730655
0.00730679
0.00730683
0.00730684
0.00730678
0.00730655
0.00730553
0.00730123
0.00728276
0.00720294
0.00685556
0.00539886
0.000441182
0.000442341
0.00544399
0.00692582
0.00728254
0.0073654
0.00738478
0.00738935
0.00739044
0.0073907
0.00739075
0.00739075
0.0073907
0.00739044
0.00738936
0.0073848
0.00736548
0.00728276
0.00692633
0.0054449
0.000442167
0.000442576
0.0054542
0.00694187
0.007301
0.00738472
0.00740439
0.00740906
0.00741017
0.00741044
0.0074105
0.0074105
0.00741044
0.00741017
0.00740907
0.00740442
0.0073848
0.00730123
0.00694238
0.00545511
0.000442392
0.000442636
0.00545652
0.00694556
0.00730531
0.00738928
0.00740904
0.00741373
0.00741486
0.00741513
0.00741519
0.00741519
0.00741513
0.00741486
0.00741374
0.00740907
0.00738936
0.00730553
0.00694606
0.0054574
0.000442444
0.000442653
0.00545705
0.00694642
0.00730632
0.00739036
0.00741014
0.00741485
0.00741598
0.00741625
0.00741631
0.00741631
0.00741625
0.00741598
0.00741486
0.00741017
0.00739044
0.00730654
0.00694692
0.00545793
0.000442457
0.00044266
0.00545718
0.00694662
0.00730656
0.00739061
0.00741041
0.00741512
0.00741624
0.00741651
0.00741658
0.00741658
0.00741651
0.00741625
0.00741512
0.00741044
0.00739069
0.00730678
0.00694711
0.00545805
0.00044246
0.000442662
0.00545721
0.00694667
0.00730662
0.00739067
0.00741047
0.00741518
0.0074163
0.00741657
0.00741664
0.00741664
0.00741657
0.00741631
0.00741519
0.00741049
0.00739075
0.00730683
0.00694716
0.00545807
0.000442461
0.000442662
0.00545721
0.00694667
0.00730662
0.00739067
0.00741047
0.00741518
0.0074163
0.00741657
0.00741664
0.00741664
0.00741657
0.00741631
0.00741519
0.00741049
0.00739075
0.00730683
0.00694716
0.00545807
0.000442461
0.00044266
0.00545718
0.00694662
0.00730656
0.00739061
0.00741041
0.00741512
0.00741624
0.00741651
0.00741658
0.00741658
0.00741651
0.00741625
0.00741512
0.00741044
0.00739069
0.00730678
0.00694711
0.00545805
0.00044246
0.000442653
0.00545705
0.00694642
0.00730632
0.00739036
0.00741014
0.00741485
0.00741598
0.00741625
0.00741631
0.00741631
0.00741625
0.00741598
0.00741486
0.00741017
0.00739044
0.00730654
0.00694692
0.00545793
0.000442457
0.000442636
0.00545652
0.00694556
0.00730531
0.00738928
0.00740904
0.00741373
0.00741486
0.00741513
0.00741519
0.00741519
0.00741513
0.00741486
0.00741374
0.00740907
0.00738936
0.00730553
0.00694606
0.0054574
0.000442444
0.000442576
0.0054542
0.00694187
0.007301
0.00738472
0.00740439
0.00740906
0.00741017
0.00741044
0.0074105
0.0074105
0.00741044
0.00741017
0.00740907
0.00740442
0.0073848
0.00730123
0.00694238
0.00545511
0.000442392
0.000442341
0.00544399
0.00692582
0.00728254
0.0073654
0.00738478
0.00738935
0.00739044
0.0073907
0.00739076
0.00739075
0.0073907
0.00739044
0.00738936
0.0073848
0.00736548
0.00728276
0.00692633
0.0054449
0.000442167
0.000441342
0.00539795
0.00685508
0.00720274
0.0072827
0.00730121
0.00730553
0.00730655
0.00730679
0.00730684
0.00730683
0.00730678
0.00730655
0.00730553
0.00730123
0.00728276
0.00720294
0.00685556
0.00539886
0.000441182
0.000436925
0.00518655
0.00654039
0.00685543
0.00692631
0.0069424
0.00694609
0.00694694
0.00694713
0.00694718
0.00694715
0.00694712
0.00694692
0.00694607
0.00694238
0.00692633
0.00685556
0.00654077
0.00518733
0.000436781
0.000414893
0.00422769
0.00518721
0.00539887
0.00544496
0.00545517
0.00545746
0.00545798
0.00545809
0.00545813
0.00545807
0.00545806
0.00545794
0.00545741
0.00545511
0.00544491
0.00539886
0.00518733
0.00422807
0.000414765
0.00030103
0.000414852
0.000436862
0.000441254
0.000442228
0.000442442
0.000442484
0.000442488
0.000442484
0.000442479
0.000442474
0.00044247
0.000442464
0.000442449
0.000442395
0.000442168
0.000441182
0.000436781
0.000414765
0.000300889
)
;

boundaryField
{
    leftWall
    {
        type            nutkWallFunction;
        blending        stepwise;
        value           nonuniform List<scalar> 
20
(
9.40084e-05
0.000101603
0.000102832
0.00010307
0.000103123
0.000103136
0.000103139
0.00010314
0.00010314
0.00010314
0.00010314
0.00010314
0.00010314
0.000103139
0.000103136
0.000103123
0.00010307
0.000102832
0.000101603
9.40084e-05
)
;
    }
    rightWall
    {
        type            nutkWallFunction;
        blending        stepwise;
        value           nonuniform List<scalar> 
20
(
0.000110108
0.000118952
0.000120382
0.000120658
0.000120719
0.000120733
0.000120736
0.000120737
0.000120737
0.000120737
0.000120737
0.000120737
0.000120737
0.000120736
0.000120733
0.000120719
0.000120658
0.000120382
0.000118952
0.000110108
)
;
    }
    topWall
    {
        type            nutkWallFunction;
        blending        stepwise;
        value           nonuniform List<scalar> 
20
(
0.000110137
0.000118962
0.000120389
0.000120664
0.000120724
0.000120737
0.000120739
0.000120739
0.000120739
0.000120739
0.000120738
0.000120738
0.000120738
0.000120737
0.000120733
0.000120719
0.000120658
0.000120382
0.000118952
0.000110108
)
;
    }
    bottomWall
    {
        type            nutkWallFunction;
        blending        stepwise;
        value           nonuniform List<scalar> 
20
(
0.000110137
0.000118962
0.000120389
0.000120664
0.000120724
0.000120737
0.000120739
0.000120739
0.000120739
0.000120739
0.000120738
0.000120738
0.000120738
0.000120737
0.000120733
0.000120719
0.000120658
0.000120382
0.000118952
0.000110108
)
;
    }
    frontAndBackPlanes
    {
        type            empty;
    }
}


// ************************************************************************* //
