/*--------------------------------*- C++ -*----------------------------------*\
| =========                 |                                                 |
| \\      /  F ield         | OpenFOAM: The Open Source CFD Toolbox           |
|  \\    /   O peration     | Version:  2506                                  |
|   \\  /    A nd           | Website:  www.openfoam.com                      |
|    \\/     M anipulation  |                                                 |
\*---------------------------------------------------------------------------*/
FoamFile
{
    version     2.0;
    format      ascii;
    arch        "LSB;label=32;scalar=64";
    class       volVectorField;
    location    "0.132";
    object      U;
}
// * * * * * * * * * * * * * * * * * * * * * * * * * * * * * * * * * * * * * //

dimensions      [0 1 -1 0 0 0 0];

internalField   nonuniform List<vector> 
400
(
(-0.000155733 -0.000233024 0)
(4.48595e-05 -0.000155381 0)
(3.14355e-05 -0.000109601 0)
(2.347e-05 -8.68942e-05 0)
(1.74143e-05 -7.13547e-05 0)
(1.33127e-05 -5.91352e-05 0)
(1.04385e-05 -4.92709e-05 0)
(8.359e-06 -4.12442e-05 0)
(6.81748e-06 -3.46286e-05 0)
(5.64803e-06 -2.91113e-05 0)
(4.7439e-06 -2.44605e-05 0)
(4.0347e-06 -2.04996e-05 0)
(3.47264e-06 -1.70919e-05 0)
(3.02438e-06 -1.41298e-05 0)
(2.66563e-06 -1.15274e-05 0)
(2.37707e-06 -9.21592e-06 0)
(2.13893e-06 -7.14206e-06 0)
(1.93446e-06 -5.28959e-06 0)
(1.92256e-06 -3.70713e-06 0)
(1.94737e-06 -1.92261e-06 0)
(-0.000185049 -7.41868e-05 0)
(1.97191e-05 -8.16182e-05 0)
(3.23021e-05 -6.5075e-05 0)
(3.2069e-05 -5.4726e-05 0)
(2.63681e-05 -4.68421e-05 0)
(2.09717e-05 -4.00702e-05 0)
(1.67875e-05 -3.41302e-05 0)
(1.35741e-05 -2.90099e-05 0)
(1.1126e-05 -2.46252e-05 0)
(9.24459e-06 -2.08703e-05 0)
(7.7797e-06 -1.76444e-05 0)
(6.62575e-06 -1.48585e-05 0)
(5.70873e-06 -1.24365e-05 0)
(4.97619e-06 -1.03143e-05 0)
(4.39019e-06 -8.43789e-06 0)
(3.92252e-06 -6.7632e-06 0)
(3.54498e-06 -5.25934e-06 0)
(3.2513e-06 -3.94146e-06 0)
(3.19946e-06 -2.92284e-06 0)
(3.75944e-06 -1.76955e-06 0)
(-0.000218542 -4.28993e-05 0)
(1.35723e-05 -5.47257e-05 0)
(3.19698e-05 -4.87127e-05 0)
(3.48732e-05 -4.26711e-05 0)
(2.96434e-05 -3.75692e-05 0)
(2.43064e-05 -3.29053e-05 0)
(1.9926e-05 -2.85883e-05 0)
(1.64016e-05 -2.46873e-05 0)
(1.36291e-05 -2.12169e-05 0)
(1.14453e-05 -1.81546e-05 0)
(9.71113e-06 -1.54619e-05 0)
(8.3234e-06 -1.30944e-05 0)
(7.20704e-06 -1.10073e-05 0)
(6.30739e-06 -9.1585e-06 0)
(5.5845e-06 -7.50958e-06 0)
(5.00945e-06 -6.02738e-06 0)
(4.55218e-06 -4.68994e-06 0)
(4.19201e-06 -3.51348e-06 0)
(4.12801e-06 -2.61189e-06 0)
(5.11535e-06 -1.55185e-06 0)
(-0.000241981 -2.65937e-05 0)
(8.77288e-06 -3.77072e-05 0)
(3.21724e-05 -3.64505e-05 0)
(3.70078e-05 -3.37169e-05 0)
(3.24095e-05 -3.07202e-05 0)
(2.73044e-05 -2.76002e-05 0)
(2.29105e-05 -2.44706e-05 0)
(1.92221e-05 -2.14706e-05 0)
(1.62192e-05 -1.86822e-05 0)
(1.3786e-05 -1.61395e-05 0)
(1.18081e-05 -1.38473e-05 0)
(1.01954e-05 -1.17932e-05 0)
(8.87877e-06 -9.95602e-06 0)
(7.8059e-06 -8.31036e-06 0)
(6.9375e-06 -6.83011e-06 0)
(6.24451e-06 -5.49155e-06 0)
(5.694e-06 -4.28075e-06 0)
(5.25703e-06 -3.21854e-06 0)
(5.16904e-06 -2.40534e-06 0)
(6.48147e-06 -1.45151e-06 0)
(-0.000257905 -1.70731e-05 0)
(3.61219e-06 -2.58057e-05 0)
(3.098e-05 -2.65923e-05 0)
(3.78669e-05 -2.58771e-05 0)
(3.42058e-05 -2.44109e-05 0)
(2.95502e-05 -2.24846e-05 0)
(2.53165e-05 -2.0317e-05 0)
(2.16072e-05 -1.809e-05 0)
(1.84845e-05 -1.59215e-05 0)
(1.58845e-05 -1.38774e-05 0)
(1.37237e-05 -1.19891e-05 0)
(1.193e-05 -1.02654e-05 0)
(1.04448e-05 -8.70197e-06 0)
(9.22135e-06 -7.28651e-06 0)
(8.223e-06 -6.00317e-06 0)
(7.42163e-06 -4.83634e-06 0)
(6.78143e-06 -3.77814e-06 0)
(6.26774e-06 -2.85131e-06 0)
(6.15989e-06 -2.145e-06 0)
(7.7514e-06 -1.30165e-06 0)
(-0.000268878 -1.12986e-05 0)
(-1.07664e-06 -1.76379e-05 0)
(2.91951e-05 -1.89898e-05 0)
(3.78367e-05 -1.92455e-05 0)
(3.51421e-05 -1.87167e-05 0)
(3.10272e-05 -1.76326e-05 0)
(2.70589e-05 -1.62103e-05 0)
(2.34344e-05 -1.46285e-05 0)
(2.02866e-05 -1.30107e-05 0)
(1.75994e-05 -1.1434e-05 0)
(1.53206e-05 -9.94186e-06 0)
(1.33981e-05 -8.55541e-06 0)
(1.17856e-05 -7.28083e-06 0)
(1.04437e-05 -6.11511e-06 0)
(9.34015e-06 -5.0502e-06 0)
(8.44875e-06 -4.07683e-06 0)
(7.73192e-06 -3.19139e-06 0)
(7.15116e-06 -2.41544e-06 0)
(7.0277e-06 -1.82475e-06 0)
(8.86152e-06 -1.11053e-06 0)
(-0.000276461 -7.50067e-06 0)
(-4.83073e-06 -1.18883e-05 0)
(2.74097e-05 -1.31871e-05 0)
(3.73705e-05 -1.37828e-05 0)
(3.55076e-05 -1.37354e-05 0)
(3.19108e-05 -1.31839e-05 0)
(2.82366e-05 -1.22981e-05 0)
(2.47493e-05 -1.12257e-05 0)
(2.16353e-05 -1.00745e-05 0)
(1.89182e-05 -8.91668e-06 0)
(1.65731e-05 -7.79655e-06 0)
(1.45666e-05 -6.73882e-06 0)
(1.28646e-05 -5.75466e-06 0)
(1.14356e-05 -4.84639e-06 0)
(1.02523e-05 -4.01106e-06 0)
(9.29087e-06 -3.24387e-06 0)
(8.51319e-06 -2.54385e-06 0)
(7.87859e-06 -1.92951e-06 0)
(7.74463e-06 -1.46144e-06 0)
(9.78084e-06 -8.9051e-07 0)
(-0.000281559 -4.78383e-06 0)
(-7.57213e-06 -7.63621e-06 0)
(2.59331e-05 -8.64151e-06 0)
(3.68039e-05 -9.23124e-06 0)
(3.55718e-05 -9.36588e-06 0)
(3.23984e-05 -9.11735e-06 0)
(2.89855e-05 -8.6003e-06 0)
(2.56392e-05 -7.92027e-06 0)
(2.25822e-05 -7.15836e-06 0)
(1.9867e-05 -6.3712e-06 0)
(1.749e-05 -5.59558e-06 0)
(1.5433e-05 -4.8534e-06 0)
(1.36724e-05 -4.15605e-06 0)
(1.21836e-05 -3.50772e-06 0)
(1.09438e-05 -2.90819e-06 0)
(9.93176e-06 -2.35539e-06 0)
(9.10929e-06 -1.84963e-06 0)
(8.43479e-06 -1.40509e-06 0)
(8.29443e-06 -1.06596e-06 0)
(1.04877e-05 -6.49909e-07 0)
(-0.000284705 -2.66714e-06 0)
(-9.34544e-06 -4.27154e-06 0)
(2.49059e-05 -4.89379e-06 0)
(3.63392e-05 -5.30106e-06 0)
(3.55226e-05 -5.44169e-06 0)
(3.26425e-05 -5.34718e-06 0)
(2.94202e-05 -5.08201e-06 0)
(2.61845e-05 -4.70847e-06 0)
(2.31802e-05 -4.2761e-06 0)
(2.04778e-05 -3.82056e-06 0)
(1.80884e-05 -3.36574e-06 0)
(1.60041e-05 -2.92643e-06 0)
(1.42088e-05 -2.51077e-06 0)
(1.26831e-05 -2.12232e-06 0)
(1.14075e-05 -1.76173e-06 0)
(1.03628e-05 -1.42831e-06 0)
(9.51106e-06 -1.12266e-06 0)
(8.81035e-06 -8.53675e-07 0)
(8.66649e-06 -6.48244e-07 0)
(1.0967e-05 -3.95352e-07 0)
(-0.000286207 -8.57468e-07 0)
(-1.0213e-05 -1.37508e-06 0)
(2.43836e-05 -1.58469e-06 0)
(3.6084e-05 -1.72823e-06 0)
(3.54722e-05 -1.78434e-06 0)
(3.2741e-05 -1.76157e-06 0)
(2.96182e-05 -1.68055e-06 0)
(2.64425e-05 -1.56177e-06 0)
(2.34687e-05 -1.42183e-06 0)
(2.07764e-05 -1.27286e-06 0)
(1.83834e-05 -1.12308e-06 0)
(1.62875e-05 -9.77707e-07 0)
(1.44762e-05 -8.39663e-07 0)
(1.2933e-05 -7.10313e-07 0)
(1.164e-05 -5.89998e-07 0)
(1.05793e-05 -4.78585e-07 0)
(9.71319e-06 -3.76351e-07 0)
(8.99951e-06 -2.86313e-07 0)
(8.85414e-06 -2.1751e-07 0)
(1.1209e-05 -1.32673e-07 0)
(-0.000286207 8.57468e-07 0)
(-1.0213e-05 1.37509e-06 0)
(2.43836e-05 1.58469e-06 0)
(3.6084e-05 1.72823e-06 0)
(3.54722e-05 1.78434e-06 0)
(3.2741e-05 1.76157e-06 0)
(2.96182e-05 1.68055e-06 0)
(2.64425e-05 1.56177e-06 0)
(2.34687e-05 1.42183e-06 0)
(2.07764e-05 1.27285e-06 0)
(1.83834e-05 1.12308e-06 0)
(1.62875e-05 9.77699e-07 0)
(1.44762e-05 8.39657e-07 0)
(1.2933e-05 7.10308e-07 0)
(1.164e-05 5.89994e-07 0)
(1.05793e-05 4.78582e-07 0)
(9.71319e-06 3.76349e-07 0)
(8.99951e-06 2.86313e-07 0)
(8.85414e-06 2.1751e-07 0)
(1.1209e-05 1.32673e-07 0)
(-0.000284705 2.66714e-06 0)
(-9.34544e-06 4.27154e-06 0)
(2.49059e-05 4.89379e-06 0)
(3.63392e-05 5.30106e-06 0)
(3.55226e-05 5.44169e-06 0)
(3.26425e-05 5.34718e-06 0)
(2.94202e-05 5.08201e-06 0)
(2.61845e-05 4.70847e-06 0)
(2.31802e-05 4.2761e-06 0)
(2.04778e-05 3.82056e-06 0)
(1.80884e-05 3.36574e-06 0)
(1.60041e-05 2.92642e-06 0)
(1.42088e-05 2.51076e-06 0)
(1.26831e-05 2.12232e-06 0)
(1.14075e-05 1.76173e-06 0)
(1.03628e-05 1.4283e-06 0)
(9.51106e-06 1.12266e-06 0)
(8.81035e-06 8.53674e-07 0)
(8.66649e-06 6.48244e-07 0)
(1.0967e-05 3.95352e-07 0)
(-0.000281559 4.78383e-06 0)
(-7.57213e-06 7.63621e-06 0)
(2.59331e-05 8.64151e-06 0)
(3.68039e-05 9.23124e-06 0)
(3.55718e-05 9.36587e-06 0)
(3.23984e-05 9.11735e-06 0)
(2.89855e-05 8.6003e-06 0)
(2.56392e-05 7.92027e-06 0)
(2.25822e-05 7.15835e-06 0)
(1.9867e-05 6.37119e-06 0)
(1.749e-05 5.59557e-06 0)
(1.5433e-05 4.8534e-06 0)
(1.36724e-05 4.15604e-06 0)
(1.21836e-05 3.50772e-06 0)
(1.09438e-05 2.90819e-06 0)
(9.93176e-06 2.35538e-06 0)
(9.10929e-06 1.84963e-06 0)
(8.43479e-06 1.40509e-06 0)
(8.29443e-06 1.06596e-06 0)
(1.04877e-05 6.4991e-07 0)
(-0.000276461 7.50067e-06 0)
(-4.83073e-06 1.18883e-05 0)
(2.74097e-05 1.31871e-05 0)
(3.73705e-05 1.37828e-05 0)
(3.55076e-05 1.37354e-05 0)
(3.19108e-05 1.31839e-05 0)
(2.82366e-05 1.22981e-05 0)
(2.47493e-05 1.12257e-05 0)
(2.16353e-05 1.00745e-05 0)
(1.89182e-05 8.91668e-06 0)
(1.65731e-05 7.79654e-06 0)
(1.45666e-05 6.73882e-06 0)
(1.28646e-05 5.75466e-06 0)
(1.14356e-05 4.84639e-06 0)
(1.02523e-05 4.01106e-06 0)
(9.29088e-06 3.24387e-06 0)
(8.51319e-06 2.54385e-06 0)
(7.8786e-06 1.92951e-06 0)
(7.74463e-06 1.46144e-06 0)
(9.78084e-06 8.9051e-07 0)
(-0.000268878 1.12986e-05 0)
(-1.07664e-06 1.76379e-05 0)
(2.91951e-05 1.89898e-05 0)
(3.78367e-05 1.92455e-05 0)
(3.51421e-05 1.87167e-05 0)
(3.10272e-05 1.76326e-05 0)
(2.70589e-05 1.62103e-05 0)
(2.34344e-05 1.46285e-05 0)
(2.02866e-05 1.30107e-05 0)
(1.75994e-05 1.1434e-05 0)
(1.53206e-05 9.94186e-06 0)
(1.33981e-05 8.55541e-06 0)
(1.17856e-05 7.28082e-06 0)
(1.04437e-05 6.11511e-06 0)
(9.34016e-06 5.05019e-06 0)
(8.44875e-06 4.07683e-06 0)
(7.73192e-06 3.19139e-06 0)
(7.15116e-06 2.41544e-06 0)
(7.0277e-06 1.82475e-06 0)
(8.86152e-06 1.11053e-06 0)
(-0.000257905 1.70731e-05 0)
(3.61219e-06 2.58057e-05 0)
(3.098e-05 2.65923e-05 0)
(3.78669e-05 2.58771e-05 0)
(3.42058e-05 2.44109e-05 0)
(2.95502e-05 2.24846e-05 0)
(2.53165e-05 2.0317e-05 0)
(2.16072e-05 1.809e-05 0)
(1.84845e-05 1.59215e-05 0)
(1.58845e-05 1.38774e-05 0)
(1.37237e-05 1.19891e-05 0)
(1.193e-05 1.02654e-05 0)
(1.04449e-05 8.70197e-06 0)
(9.22135e-06 7.28651e-06 0)
(8.22301e-06 6.00317e-06 0)
(7.42163e-06 4.83634e-06 0)
(6.78144e-06 3.77814e-06 0)
(6.26774e-06 2.85131e-06 0)
(6.1599e-06 2.145e-06 0)
(7.7514e-06 1.30165e-06 0)
(-0.000241981 2.65937e-05 0)
(8.77287e-06 3.77073e-05 0)
(3.21724e-05 3.64505e-05 0)
(3.70078e-05 3.37169e-05 0)
(3.24095e-05 3.07202e-05 0)
(2.73044e-05 2.76002e-05 0)
(2.29105e-05 2.44706e-05 0)
(1.92221e-05 2.14706e-05 0)
(1.62192e-05 1.86822e-05 0)
(1.3786e-05 1.61396e-05 0)
(1.18081e-05 1.38473e-05 0)
(1.01954e-05 1.17932e-05 0)
(8.87877e-06 9.95602e-06 0)
(7.8059e-06 8.31036e-06 0)
(6.93751e-06 6.83012e-06 0)
(6.24452e-06 5.49156e-06 0)
(5.69401e-06 4.28075e-06 0)
(5.25703e-06 3.21854e-06 0)
(5.16904e-06 2.40534e-06 0)
(6.48147e-06 1.45151e-06 0)
(-0.000218542 4.28993e-05 0)
(1.35723e-05 5.47257e-05 0)
(3.19698e-05 4.87127e-05 0)
(3.48732e-05 4.26711e-05 0)
(2.96434e-05 3.75692e-05 0)
(2.43064e-05 3.29053e-05 0)
(1.9926e-05 2.85883e-05 0)
(1.64016e-05 2.46873e-05 0)
(1.36291e-05 2.12169e-05 0)
(1.14453e-05 1.81546e-05 0)
(9.71113e-06 1.54619e-05 0)
(8.3234e-06 1.30944e-05 0)
(7.20705e-06 1.10073e-05 0)
(6.30739e-06 9.15851e-06 0)
(5.5845e-06 7.50958e-06 0)
(5.00946e-06 6.02738e-06 0)
(4.55218e-06 4.68994e-06 0)
(4.19201e-06 3.51349e-06 0)
(4.12801e-06 2.61189e-06 0)
(5.11535e-06 1.55185e-06 0)
(-0.000185049 7.41868e-05 0)
(1.97191e-05 8.16182e-05 0)
(3.2302e-05 6.5075e-05 0)
(3.2069e-05 5.4726e-05 0)
(2.63681e-05 4.68421e-05 0)
(2.09717e-05 4.00702e-05 0)
(1.67875e-05 3.41302e-05 0)
(1.35741e-05 2.90099e-05 0)
(1.1126e-05 2.46252e-05 0)
(9.24459e-06 2.08703e-05 0)
(7.7797e-06 1.76444e-05 0)
(6.62575e-06 1.48585e-05 0)
(5.70874e-06 1.24365e-05 0)
(4.97619e-06 1.03143e-05 0)
(4.3902e-06 8.43789e-06 0)
(3.92252e-06 6.7632e-06 0)
(3.54498e-06 5.25935e-06 0)
(3.2513e-06 3.94147e-06 0)
(3.19946e-06 2.92284e-06 0)
(3.75944e-06 1.76955e-06 0)
(-0.000155733 0.000233024 0)
(4.48595e-05 0.000155381 0)
(3.14355e-05 0.000109601 0)
(2.347e-05 8.68942e-05 0)
(1.74143e-05 7.13547e-05 0)
(1.33127e-05 5.91352e-05 0)
(1.04385e-05 4.92709e-05 0)
(8.359e-06 4.12442e-05 0)
(6.81747e-06 3.46286e-05 0)
(5.64802e-06 2.91113e-05 0)
(4.7439e-06 2.44605e-05 0)
(4.0347e-06 2.04996e-05 0)
(3.47264e-06 1.70919e-05 0)
(3.02438e-06 1.41298e-05 0)
(2.66563e-06 1.15274e-05 0)
(2.37707e-06 9.21592e-06 0)
(2.13893e-06 7.14206e-06 0)
(1.93446e-06 5.28959e-06 0)
(1.92256e-06 3.70713e-06 0)
(1.94737e-06 1.92261e-06 0)
)
;

boundaryField
{
    leftWall
    {
        type            noSlip;
    }
    rightWall
    {
        type            noSlip;
    }
    topWall
    {
        type            noSlip;
    }
    bottomWall
    {
        type            noSlip;
    }
    frontAndBackPlanes
    {
        type            empty;
    }
}


// ************************************************************************* //
