/*--------------------------------*- C++ -*----------------------------------*\
| =========                 |                                                 |
| \\      /  F ield         | OpenFOAM: The Open Source CFD Toolbox           |
|  \\    /   O peration     | Version:  2506                                  |
|   \\  /    A nd           | Website:  www.openfoam.com                      |
|    \\/     M anipulation  |                                                 |
\*---------------------------------------------------------------------------*/
FoamFile
{
    version     2.0;
    format      ascii;
    arch        "LSB;label=32;scalar=64";
    class       volScalarField;
    location    "1.9290251";
    object      alphat;
}
// * * * * * * * * * * * * * * * * * * * * * * * * * * * * * * * * * * * * * //

dimensions      [1 -1 -1 0 0 0 0];

internalField   nonuniform List<scalar> 
200
(
0.0880147
0.159303
0.190875
0.209846
0.222937
0.232441
0.239379
0.244277
0.247419
0.248959
0.159091
1.39174
1.99096
2.31527
2.52205
2.66396
2.76336
2.83143
2.87418
2.89487
0.190563
1.98994
3.22905
3.97748
4.4662
4.80139
5.03479
5.19366
5.29303
5.341
0.209472
2.31355
3.97644
5.06321
5.79994
6.31335
6.67298
6.91817
7.07152
7.14553
0.22252
2.51984
4.46431
5.79895
6.73115
7.39183
7.85874
8.17847
8.37885
8.47563
0.231992
2.66138
4.79882
6.31151
7.39091
8.16663
8.71953
9.10002
9.33913
9.45476
0.238906
2.7605
5.03168
6.67042
7.85701
8.71869
9.33715
9.76465
10.034
10.1644
0.243785
2.82834
5.19012
6.91503
8.17606
9.09845
9.76389
10.2254
10.5169
10.6581
0.246914
2.87093
5.28915
7.06792
8.37589
9.33694
10.0326
10.5162
10.822
10.9703
0.248445
2.89151
5.33688
7.14158
8.47223
9.45207
10.1625
10.6569
10.9698
11.1216
0.248445
2.89151
5.33688
7.14158
8.47223
9.45207
10.1625
10.6569
10.9698
11.1216
0.246914
2.87093
5.28915
7.06792
8.37589
9.33694
10.0326
10.5162
10.822
10.9703
0.243785
2.82834
5.19012
6.91503
8.17606
9.09845
9.76389
10.2254
10.5169
10.6581
0.238906
2.7605
5.03168
6.67042
7.85701
8.71869
9.33715
9.76465
10.034
10.1644
0.231992
2.66138
4.79882
6.31151
7.39091
8.16663
8.71953
9.10002
9.33913
9.45476
0.22252
2.51984
4.46431
5.79895
6.73115
7.39183
7.85874
8.17847
8.37885
8.47563
0.209472
2.31355
3.97644
5.06321
5.79993
6.31335
6.67298
6.91817
7.07152
7.14553
0.190563
1.98994
3.22905
3.97748
4.4662
4.80139
5.03479
5.19366
5.29303
5.341
0.159091
1.39174
1.99096
2.31527
2.52205
2.66396
2.76336
2.83143
2.87418
2.89487
0.0880147
0.159303
0.190875
0.209846
0.222937
0.232441
0.239379
0.244277
0.247419
0.248959
)
;

boundaryField
{
    leftWall
    {
        type            compressible::alphatWallFunction;
        value           nonuniform List<scalar> 
20
(
0.0169507
0.0277097
0.0322479
0.0348625
0.0365994
0.0378165
0.0386771
0.0392681
0.0396393
0.0398186
0.0398186
0.0396393
0.0392681
0.0386771
0.0378165
0.0365994
0.0348625
0.0322479
0.0277097
0.0169507
)
;
    }
    rightWall
    {
        type            compressible::alphatWallFunction;
        value           nonuniform List<scalar> 0();
    }
    topWall
    {
        type            compressible::alphatWallFunction;
        value           nonuniform List<scalar> 10(0.0199379 0.0331587 0.0387061 0.0418956 0.0440115 0.0454931 0.04654 0.0472587 0.04771 0.0479279);
    }
    bottomWall
    {
        type            compressible::alphatWallFunction;
        value           nonuniform List<scalar> 10(0.0199379 0.0331587 0.0387061 0.0418956 0.0440115 0.0454931 0.04654 0.0472587 0.04771 0.0479279);
    }
    frontAndBackPlanes
    {
        type            empty;
    }
    procBoundary1to0
    {
        type            processor;
        value           nonuniform List<scalar> 
20
(
0.248965
2.89495
5.34118
7.14579
8.47596
9.45513
10.1648
10.6586
10.9708
11.1221
11.1221
10.9708
10.6586
10.1648
9.45514
8.47596
7.14579
5.34118
2.89495
0.248965
)
;
    }
}


// ************************************************************************* //
