/*--------------------------------*- C++ -*----------------------------------*\
| =========                 |                                                 |
| \\      /  F ield         | OpenFOAM: The Open Source CFD Toolbox           |
|  \\    /   O peration     | Version:  2506                                  |
|   \\  /    A nd           | Website:  www.openfoam.com                      |
|    \\/     M anipulation  |                                                 |
\*---------------------------------------------------------------------------*/
FoamFile
{
    version     2.0;
    format      ascii;
    arch        "LSB;label=32;scalar=64";
    class       surfaceScalarField;
    location    "1.9290251";
    object      phi;
}
// * * * * * * * * * * * * * * * * * * * * * * * * * * * * * * * * * * * * * //

dimensions      [1 0 -1 0 0 0 0];

oriented        oriented;

internalField   nonuniform List<scalar> 
370
(
-8.71453e-06
-1.09513e-05
-2.93954e-06
-5.95769e-06
-4.76685e-07
-4.40601e-06
9.43197e-07
-3.92451e-06
1.78904e-06
-3.425e-06
2.29569e-06
-2.97726e-06
2.59836e-06
-2.58904e-06
2.77121e-06
-2.24982e-06
2.856e-06
-1.95389e-06
-1.69764e-06
-2.28624e-06
-7.32927e-06
-1.53902e-06
-5.82376e-06
-4.68704e-07
-4.65359e-06
3.02528e-07
-3.93371e-06
9.02637e-07
-3.32729e-06
1.36733e-06
-2.81116e-06
1.72009e-06
-2.37937e-06
1.98363e-06
-2.0188e-06
2.17552e-06
-1.71684e-06
-1.46409e-06
-6.28882e-07
-6.04398e-06
-6.35408e-07
-5.00692e-06
-3.25333e-07
-4.18594e-06
3.94727e-08
-3.56013e-06
4.18335e-07
-3.01546e-06
7.81942e-07
-2.5385e-06
1.11044e-06
-2.13052e-06
1.39492e-06
-1.78706e-06
1.63323e-06
-1.50013e-06
-1.26198e-06
-7.09767e-07
-5.12902e-06
-6.50161e-07
-4.30525e-06
-4.71031e-07
-3.62302e-06
-2.27297e-07
-3.08804e-06
6.08628e-08
-2.62394e-06
3.69753e-07
-2.21249e-06
6.76912e-07
-1.85396e-06
9.66e-07
-1.54762e-06
1.22713e-06
-1.28966e-06
-1.07519e-06
-8.54161e-07
-4.24084e-06
-8.29215e-07
-3.60239e-06
-6.92088e-07
-3.04473e-06
-4.87063e-07
-2.59563e-06
-2.33842e-07
-2.2078e-06
4.95825e-08
-1.86406e-06
3.44501e-07
-1.56203e-06
6.34831e-07
-1.30131e-06
9.08717e-07
-1.08004e-06
-8.9535e-07
-9.71927e-07
-3.36589e-06
-9.84412e-07
-2.88483e-06
-8.82562e-07
-2.45033e-06
-7.03518e-07
-2.09113e-06
-4.70507e-07
-1.77974e-06
-2.01818e-07
-1.50385e-06
8.53501e-08
-1.26056e-06
3.75726e-07
-1.04929e-06
6.5706e-07
-8.68966e-07
-7.179e-07
-1.07467e-06
-2.50731e-06
-1.10611e-06
-2.16361e-06
-1.02867e-06
-1.84486e-06
-8.69487e-07
-1.57672e-06
-6.51429e-07
-1.34284e-06
-3.93323e-07
-1.13536e-06
-1.12044e-07
-9.52004e-07
1.77512e-07
-7.92202e-07
4.62975e-07
-6.55307e-07
-5.40307e-07
-1.1544e-06
-1.66271e-06
-1.19616e-06
-1.44207e-06
-1.13398e-06
-1.23301e-06
-9.88667e-07
-1.05512e-06
-7.81521e-07
-8.99165e-07
-5.31245e-07
-7.60588e-07
-2.54571e-07
-6.3794e-07
3.37515e-08
-5.30819e-07
3.21282e-07
-4.38841e-07
-3.61434e-07
-1.20738e-06
-8.28525e-07
-1.25484e-06
-7.20849e-07
-1.20181e-06
-6.17399e-07
-1.06534e-06
-5.28765e-07
-8.65412e-07
-4.50798e-07
-6.2043e-07
-3.81433e-07
-3.47011e-07
-3.19986e-07
-5.98442e-08
-2.66257e-07
2.28577e-07
-2.20065e-07
-1.81151e-07
-1.23366e-06
2.74102e-12
-1.2836e-06
2.62899e-12
-1.23491e-06
2.51137e-12
-1.10277e-06
2.47017e-12
-9.06468e-07
2.48973e-12
-6.64179e-07
2.55941e-12
-3.92462e-07
2.66127e-12
-1.05981e-07
2.79259e-12
1.82739e-07
2.936e-12
3.0459e-12
-1.23366e-06
8.2853e-07
-1.2836e-06
7.20855e-07
-1.23491e-06
6.17404e-07
-1.10277e-06
5.2877e-07
-9.06468e-07
4.50803e-07
-6.64179e-07
3.81438e-07
-3.92462e-07
3.19992e-07
-1.05981e-07
2.66263e-07
1.82738e-07
2.20071e-07
1.81157e-07
-1.20737e-06
1.66271e-06
-1.25484e-06
1.44207e-06
-1.20181e-06
1.23301e-06
-1.06534e-06
1.05512e-06
-8.65412e-07
8.9917e-07
-6.2043e-07
7.60593e-07
-3.47011e-07
6.37945e-07
-5.98444e-08
5.30824e-07
2.28577e-07
4.38847e-07
3.6144e-07
-1.1544e-06
2.50731e-06
-1.19616e-06
2.16361e-06
-1.13398e-06
1.84486e-06
-9.88667e-07
1.57672e-06
-7.81521e-07
1.34284e-06
-5.31245e-07
1.13537e-06
-2.54571e-07
9.52009e-07
3.37513e-08
7.92207e-07
3.21282e-07
6.55312e-07
5.40313e-07
-1.07466e-06
3.3659e-06
-1.10611e-06
2.88484e-06
-1.02867e-06
2.45033e-06
-8.69487e-07
2.09114e-06
-6.51428e-07
1.77975e-06
-3.93323e-07
1.50386e-06
-1.12043e-07
1.26057e-06
1.77512e-07
1.04929e-06
4.62975e-07
8.68971e-07
7.17906e-07
-9.71926e-07
4.24085e-06
-9.84411e-07
3.60239e-06
-8.8256e-07
3.04473e-06
-7.03517e-07
2.59563e-06
-4.70506e-07
2.20781e-06
-2.01817e-07
1.86406e-06
8.53503e-08
1.56203e-06
3.75726e-07
1.30132e-06
6.5706e-07
1.08005e-06
8.95355e-07
-8.5416e-07
5.12902e-06
-8.29214e-07
4.30525e-06
-6.92086e-07
3.62302e-06
-4.87062e-07
3.08804e-06
-2.33841e-07
2.62395e-06
4.95832e-08
2.21249e-06
3.44501e-07
1.85396e-06
6.34831e-07
1.54762e-06
9.08717e-07
1.28966e-06
1.07519e-06
-7.09766e-07
6.04398e-06
-6.50159e-07
5.00692e-06
-4.71029e-07
4.18595e-06
-2.27296e-07
3.56013e-06
6.08641e-08
3.01546e-06
3.69754e-07
2.5385e-06
6.76913e-07
2.13052e-06
9.66e-07
1.78706e-06
1.22713e-06
1.50014e-06
1.26198e-06
-6.2888e-07
7.32927e-06
-6.35406e-07
5.82376e-06
-3.25331e-07
4.65359e-06
3.94745e-08
3.93371e-06
4.18337e-07
3.32729e-06
7.81943e-07
2.81117e-06
1.11044e-06
2.37938e-06
1.39492e-06
2.0188e-06
1.63323e-06
1.71684e-06
1.46409e-06
-2.28624e-06
1.09513e-05
-1.53902e-06
5.95769e-06
-4.68702e-07
4.40601e-06
3.0253e-07
3.92451e-06
9.02639e-07
3.42501e-06
1.36733e-06
2.97726e-06
1.72009e-06
2.58905e-06
1.98363e-06
2.24982e-06
2.17552e-06
1.95389e-06
1.69765e-06
-8.71453e-06
-2.93954e-06
-4.76684e-07
9.43199e-07
1.78904e-06
2.29569e-06
2.59836e-06
2.77122e-06
2.856e-06
)
;

boundaryField
{
    leftWall
    {
        type            calculated;
        value           nonuniform List<scalar> 
20
(
1.01747e-05
-4.15574e-07
1.69379e-07
5.68345e-07
7.10955e-07
8.25497e-07
9.34837e-07
1.02275e-06
1.08287e-06
1.11333e-06
1.11333e-06
1.08287e-06
1.02275e-06
9.34837e-07
8.25496e-07
7.10954e-07
5.68344e-07
1.69378e-07
-4.15574e-07
1.01747e-05
)
;
    }
    rightWall
    {
        type            calculated;
        value           nonuniform List<scalar> 0();
    }
    topWall
    {
        type            calculated;
        value           nonuniform List<scalar> 10(1.04659e-05 1.17152e-06 2.81368e-06 3.27432e-06 3.25895e-06 3.06595e-06 2.80176e-06 2.51747e-06 2.24072e-06 1.98499e-06);
    }
    bottomWall
    {
        type            calculated;
        value           nonuniform List<scalar> 10(1.04659e-05 1.17152e-06 2.81368e-06 3.27433e-06 3.25895e-06 3.06596e-06 2.80177e-06 2.51748e-06 2.24072e-06 1.98499e-06);
    }
    frontAndBackPlanes
    {
        type            empty;
    }
    procBoundary1to0
    {
        type            processor;
        value           nonuniform List<scalar> 
20
(
2.87805e-06
2.309e-06
1.82669e-06
1.45529e-06
1.1584e-06
9.20369e-07
7.3474e-07
5.98054e-07
5.08076e-07
4.63421e-07
4.63421e-07
5.08075e-07
5.98053e-07
7.34739e-07
9.20369e-07
1.1584e-06
1.45529e-06
1.82669e-06
2.309e-06
2.87805e-06
)
;
    }
}


// ************************************************************************* //
