/*--------------------------------*- C++ -*----------------------------------*\
| =========                 |                                                 |
| \\      /  F ield         | OpenFOAM: The Open Source CFD Toolbox           |
|  \\    /   O peration     | Version:  2506                                  |
|   \\  /    A nd           | Website:  www.openfoam.com                      |
|    \\/     M anipulation  |                                                 |
\*---------------------------------------------------------------------------*/
FoamFile
{
    version     2.0;
    format      ascii;
    arch        "LSB;label=32;scalar=64";
    class       volScalarField;
    location    "1.9290251";
    object      T;
}
// * * * * * * * * * * * * * * * * * * * * * * * * * * * * * * * * * * * * * //

dimensions      [0 0 0 1 0 0 0];

internalField   nonuniform List<scalar> 
200
(
287.893
278.757
276.554
275.526
274.876
274.417
274.079
273.823
273.628
273.478
284.919
279.197
277.209
276.076
275.324
274.784
274.38
274.071
273.831
273.643
283.942
279.13
277.352
276.275
275.524
274.967
274.542
274.21
273.95
273.743
283.569
279.056
277.397
276.374
275.642
275.086
274.654
274.311
274.039
273.82
283.383
279.005
277.414
276.431
275.718
275.17
274.736
274.389
274.109
273.883
283.274
278.974
277.423
276.467
275.77
275.23
274.798
274.448
274.164
273.932
283.203
278.954
277.428
276.491
275.807
275.272
274.843
274.493
274.206
273.971
283.158
278.942
277.433
276.507
275.831
275.302
274.874
274.525
274.237
273.999
283.13
278.935
277.435
276.517
275.846
275.32
274.895
274.545
274.256
274.018
283.117
278.932
277.437
276.522
275.854
275.329
274.904
274.555
274.266
274.027
283.117
278.932
277.437
276.522
275.854
275.329
274.904
274.555
274.266
274.027
283.13
278.935
277.435
276.517
275.846
275.32
274.895
274.545
274.256
274.018
283.158
278.942
277.433
276.507
275.831
275.302
274.874
274.525
274.237
273.999
283.203
278.954
277.428
276.491
275.807
275.272
274.843
274.493
274.206
273.971
283.274
278.974
277.423
276.467
275.77
275.23
274.798
274.448
274.164
273.932
283.383
279.005
277.414
276.431
275.718
275.17
274.736
274.389
274.109
273.883
283.569
279.056
277.397
276.374
275.642
275.086
274.654
274.311
274.039
273.82
283.942
279.13
277.352
276.275
275.524
274.967
274.542
274.21
273.95
273.743
284.919
279.197
277.209
276.076
275.324
274.784
274.38
274.071
273.831
273.643
287.893
278.757
276.554
275.526
274.876
274.417
274.079
273.823
273.628
273.478
)
;

boundaryField
{
    leftWall
    {
        type            fixedValue;
        value           uniform 373;
    }
    rightWall
    {
        type            fixedValue;
        value           nonuniform List<scalar> 0();
    }
    topWall
    {
        type            fixedValue;
        value           uniform 273;
    }
    bottomWall
    {
        type            fixedValue;
        value           uniform 273;
    }
    frontAndBackPlanes
    {
        type            empty;
    }
    procBoundary1to0
    {
        type            processor;
        value           nonuniform List<scalar> 
20
(
273.362
273.496
273.58
273.646
273.7
273.744
273.779
273.804
273.821
273.83
273.83
273.821
273.804
273.779
273.744
273.7
273.646
273.58
273.496
273.362
)
;
    }
}


// ************************************************************************* //
