/*--------------------------------*- C++ -*----------------------------------*\
| =========                 |                                                 |
| \\      /  F ield         | OpenFOAM: The Open Source CFD Toolbox           |
|  \\    /   O peration     | Version:  2506                                  |
|   \\  /    A nd           | Website:  www.openfoam.com                      |
|    \\/     M anipulation  |                                                 |
\*---------------------------------------------------------------------------*/
FoamFile
{
    version     2.0;
    format      ascii;
    arch        "LSB;label=32;scalar=64";
    class       volVectorField;
    location    "1.9290251";
    object      U;
}
// * * * * * * * * * * * * * * * * * * * * * * * * * * * * * * * * * * * * * //

dimensions      [0 1 -1 0 0 0 0];

internalField   nonuniform List<vector> 
200
(
(-0.000226205 -0.00025007 0)
(-1.07374e-05 -7.79206e-05 0)
(-1.18098e-05 -5.96415e-05 0)
(2.54255e-06 -5.55424e-05 0)
(1.14578e-05 -5.01557e-05 0)
(1.66854e-05 -4.4558e-05 0)
(1.97873e-05 -3.92887e-05 0)
(2.16186e-05 -3.44733e-05 0)
(2.26062e-05 -3.01701e-05 0)
(2.30034e-05 -2.63954e-05 0)
(-3.65183e-05 -3.7637e-05 0)
(-1.18305e-05 -4.45613e-05 0)
(-7.36168e-06 -3.77818e-05 0)
(-4.75356e-07 -3.29725e-05 0)
(5.10038e-06 -2.81713e-05 0)
(9.31861e-06 -2.39661e-05 0)
(1.2523e-05 -2.04276e-05 0)
(1.49467e-05 -1.74518e-05 0)
(1.6739e-05 -1.49379e-05 0)
(1.80172e-05 -1.28148e-05 0)
(-1.12404e-05 -5.06025e-05 0)
(-5.23825e-06 -4.24841e-05 0)
(-3.98197e-06 -3.50686e-05 0)
(-1.1574e-06 -2.96764e-05 0)
(1.8755e-06 -2.50895e-05 0)
(4.87032e-06 -2.11317e-05 0)
(7.64701e-06 -1.77783e-05 0)
(1.0101e-05 -1.49684e-05 0)
(1.21886e-05 -1.26235e-05 0)
(1.39082e-05 -1.06739e-05 0)
(-1.26159e-05 -4.52861e-05 0)
(-5.76473e-06 -3.75743e-05 0)
(-4.50624e-06 -3.12764e-05 0)
(-2.82745e-06 -2.65428e-05 0)
(-7.08669e-07 -2.25038e-05 0)
(1.71554e-06 -1.89536e-05 0)
(4.21043e-06 -1.58844e-05 0)
(6.61456e-06 -1.32791e-05 0)
(8.82518e-06 -1.10944e-05 0)
(1.07851e-05 -9.281e-06 0)
(-1.44797e-05 -3.76294e-05 0)
(-7.17944e-06 -3.17318e-05 0)
(-6.03421e-06 -2.67375e-05 0)
(-4.75003e-06 -2.27836e-05 0)
(-2.95338e-06 -1.93689e-05 0)
(-7.72536e-07 -1.63416e-05 0)
(1.57407e-06 -1.36899e-05 0)
(3.93819e-06 -1.14106e-05 0)
(6.21018e-06 -9.48308e-06 0)
(8.31287e-06 -7.87748e-06 0)
(-1.59598e-05 -3.03902e-05 0)
(-8.34817e-06 -2.59454e-05 0)
(-7.41426e-06 -2.1999e-05 0)
(-6.38466e-06 -1.87685e-05 0)
(-4.77768e-06 -1.59694e-05 0)
(-2.73794e-06 -1.34881e-05 0)
(-4.8208e-07 -1.13029e-05 0)
(1.8517e-06 -9.40964e-06 0)
(4.1558e-06 -7.7975e-06 0)
(6.34588e-06 -6.44906e-06 0)
(-1.73144e-05 -2.34728e-05 0)
(-9.27703e-06 -2.01917e-05 0)
(-8.48818e-06 -1.71877e-05 0)
(-7.63898e-06 -1.46792e-05 0)
(-6.17309e-06 -1.24968e-05 0)
(-4.23593e-06 -1.05623e-05 0)
(-2.04644e-06 -8.85434e-06 0)
(2.60562e-07 -7.36784e-06 0)
(2.57892e-06 -6.09622e-06 0)
(4.82111e-06 -5.02914e-06 0)
(-1.83947e-05 -1.66714e-05 0)
(-9.97325e-06 -1.44226e-05 0)
(-9.26787e-06 -1.23162e-05 0)
(-8.53972e-06 -1.05327e-05 0)
(-7.17548e-06 -8.97272e-06 0)
(-5.31365e-06 -7.58786e-06 0)
(-3.17402e-06 -6.36304e-06 0)
(-8.9028e-07 -5.29415e-06 0)
(1.432e-06 -4.3771e-06 0)
(3.70355e-06 -3.60583e-06 0)
(-1.91226e-05 -9.95884e-06 0)
(-1.043e-05 -8.65039e-06 0)
(-9.7715e-06 -7.40409e-06 0)
(-9.11881e-06 -6.33901e-06 0)
(-7.82096e-06 -5.40321e-06 0)
(-6.00953e-06 -4.57108e-06 0)
(-3.90411e-06 -3.83421e-06 0)
(-1.63792e-06 -3.19013e-06 0)
(6.83644e-07 -2.6366e-06 0)
(2.97029e-06 -2.17042e-06 0)
(-1.94866e-05 -3.31177e-06 0)
(-1.06546e-05 -2.88268e-06 0)
(-1.00175e-05 -2.4703e-06 0)
(-9.4013e-06 -2.11623e-06 0)
(-8.13644e-06 -1.80438e-06 0)
(-6.35048e-06 -1.52681e-06 0)
(-4.26264e-06 -1.28086e-06 0)
(-2.00594e-06 -1.06572e-06 0)
(3.14233e-07 -8.80681e-07 0)
(2.6071e-06 -7.2474e-07 0)
(-1.94866e-05 3.31181e-06 0)
(-1.06546e-05 2.88272e-06 0)
(-1.00175e-05 2.47034e-06 0)
(-9.4013e-06 2.11627e-06 0)
(-8.13644e-06 1.80442e-06 0)
(-6.35048e-06 1.52685e-06 0)
(-4.26264e-06 1.2809e-06 0)
(-2.00594e-06 1.06576e-06 0)
(3.14232e-07 8.80728e-07 0)
(2.6071e-06 7.24789e-07 0)
(-1.91226e-05 9.95889e-06 0)
(-1.04299e-05 8.65043e-06 0)
(-9.77149e-06 7.40412e-06 0)
(-9.11881e-06 6.33905e-06 0)
(-7.82095e-06 5.40325e-06 0)
(-6.00953e-06 4.57112e-06 0)
(-3.90411e-06 3.83425e-06 0)
(-1.63792e-06 3.19017e-06 0)
(6.83642e-07 2.63665e-06 0)
(2.97029e-06 2.17047e-06 0)
(-1.83946e-05 1.66714e-05 0)
(-9.97324e-06 1.44226e-05 0)
(-9.26787e-06 1.23163e-05 0)
(-8.53971e-06 1.05328e-05 0)
(-7.17547e-06 8.97276e-06 0)
(-5.31365e-06 7.5879e-06 0)
(-3.17402e-06 6.36309e-06 0)
(-8.90281e-07 5.29419e-06 0)
(1.43199e-06 4.37714e-06 0)
(3.70355e-06 3.60587e-06 0)
(-1.73144e-05 2.34728e-05 0)
(-9.27702e-06 2.01917e-05 0)
(-8.48817e-06 1.71878e-05 0)
(-7.63897e-06 1.46792e-05 0)
(-6.17309e-06 1.24968e-05 0)
(-4.23593e-06 1.05623e-05 0)
(-2.04644e-06 8.85438e-06 0)
(2.60561e-07 7.36789e-06 0)
(2.57892e-06 6.09626e-06 0)
(4.82111e-06 5.02919e-06 0)
(-1.59598e-05 3.03902e-05 0)
(-8.34816e-06 2.59455e-05 0)
(-7.41425e-06 2.1999e-05 0)
(-6.38465e-06 1.87685e-05 0)
(-4.77768e-06 1.59695e-05 0)
(-2.73793e-06 1.34882e-05 0)
(-4.82077e-07 1.13029e-05 0)
(1.8517e-06 9.40968e-06 0)
(4.1558e-06 7.79754e-06 0)
(6.34588e-06 6.44911e-06 0)
(-1.44797e-05 3.76295e-05 0)
(-7.17943e-06 3.17318e-05 0)
(-6.0342e-06 2.67375e-05 0)
(-4.75002e-06 2.27837e-05 0)
(-2.95337e-06 1.93689e-05 0)
(-7.72529e-07 1.63416e-05 0)
(1.57408e-06 1.36899e-05 0)
(3.93819e-06 1.14107e-05 0)
(6.21018e-06 9.48312e-06 0)
(8.31287e-06 7.87753e-06 0)
(-1.26159e-05 4.52862e-05 0)
(-5.76472e-06 3.75743e-05 0)
(-4.50622e-06 3.12765e-05 0)
(-2.82744e-06 2.65429e-05 0)
(-7.08657e-07 2.25038e-05 0)
(1.71555e-06 1.89536e-05 0)
(4.21043e-06 1.58844e-05 0)
(6.61457e-06 1.32791e-05 0)
(8.82519e-06 1.10944e-05 0)
(1.07851e-05 9.28104e-06 0)
(-1.12404e-05 5.06025e-05 0)
(-5.23824e-06 4.24841e-05 0)
(-3.98196e-06 3.50687e-05 0)
(-1.15738e-06 2.96764e-05 0)
(1.87551e-06 2.50895e-05 0)
(4.87033e-06 2.11317e-05 0)
(7.64702e-06 1.77783e-05 0)
(1.0101e-05 1.49684e-05 0)
(1.21886e-05 1.26235e-05 0)
(1.39082e-05 1.0674e-05 0)
(-3.65182e-05 3.7637e-05 0)
(-1.18305e-05 4.45614e-05 0)
(-7.36167e-06 3.77818e-05 0)
(-4.75339e-07 3.29725e-05 0)
(5.10039e-06 2.81714e-05 0)
(9.31863e-06 2.39661e-05 0)
(1.2523e-05 2.04277e-05 0)
(1.49467e-05 1.74518e-05 0)
(1.6739e-05 1.49379e-05 0)
(1.80172e-05 1.28148e-05 0)
(-0.000226205 0.00025007 0)
(-1.07374e-05 7.79206e-05 0)
(-1.18098e-05 5.96415e-05 0)
(2.54257e-06 5.55424e-05 0)
(1.14578e-05 5.01557e-05 0)
(1.66854e-05 4.45581e-05 0)
(1.97873e-05 3.92887e-05 0)
(2.16186e-05 3.44733e-05 0)
(2.26062e-05 3.01701e-05 0)
(2.30034e-05 2.63954e-05 0)
)
;

boundaryField
{
    leftWall
    {
        type            noSlip;
    }
    rightWall
    {
        type            noSlip;
    }
    topWall
    {
        type            noSlip;
    }
    bottomWall
    {
        type            noSlip;
    }
    frontAndBackPlanes
    {
        type            empty;
    }
    procBoundary1to0
    {
        type            processor;
        value           nonuniform List<vector> 
20
(
(2.29729e-05 -2.31376e-05 0)
(1.88741e-05 -1.10305e-05 0)
(1.52797e-05 -9.06386e-06 0)
(1.24701e-05 -7.7937e-06 0)
(1.0199e-05 -6.56245e-06 0)
(8.36268e-06 -5.34402e-06 0)
(6.92113e-06 -4.1538e-06 0)
(5.85438e-06 -2.97256e-06 0)
(5.14971e-06 -1.78741e-06 0)
(4.79927e-06 -5.96575e-07 0)
(4.79927e-06 5.96625e-07 0)
(5.14971e-06 1.78746e-06 0)
(5.85438e-06 2.97261e-06 0)
(6.92113e-06 4.15384e-06 0)
(8.36268e-06 5.34407e-06 0)
(1.0199e-05 6.56249e-06 0)
(1.24701e-05 7.79374e-06 0)
(1.52797e-05 9.06389e-06 0)
(1.88741e-05 1.10305e-05 0)
(2.29729e-05 2.31376e-05 0)
)
;
    }
}


// ************************************************************************* //
