/*--------------------------------*- C++ -*----------------------------------*\
| =========                 |                                                 |
| \\      /  F ield         | OpenFOAM: The Open Source CFD Toolbox           |
|  \\    /   O peration     | Version:  2506                                  |
|   \\  /    A nd           | Website:  www.openfoam.com                      |
|    \\/     M anipulation  |                                                 |
\*---------------------------------------------------------------------------*/
FoamFile
{
    version     2.0;
    format      ascii;
    arch        "LSB;label=32;scalar=64";
    class       volScalarField;
    location    "2.909796161";
    object      alphat;
}
// * * * * * * * * * * * * * * * * * * * * * * * * * * * * * * * * * * * * * //

dimensions      [1 -1 -1 0 0 0 0];

internalField   nonuniform List<scalar> 
400
(
0.066439
0.120201
0.143727
0.157618
0.167051
0.173798
0.178659
0.182054
0.184216
0.185271
0.185277
0.184234
0.182085
0.178704
0.173857
0.167127
0.157714
0.143848
0.12035
0.0666595
0.120042
1.06525
1.52974
1.78058
1.94018
2.04955
2.12612
2.17854
2.21148
2.22744
2.22752
2.21172
2.17893
2.12668
2.05028
1.9411
1.7817
1.53106
1.06665
0.120355
0.143493
1.52898
2.5043
3.09591
3.48229
3.74702
3.93114
4.05636
4.13464
4.17243
4.1726
4.13514
4.0572
3.93233
3.74856
3.48418
3.09811
2.5067
1.53109
0.143855
0.157337
1.77929
3.09511
3.9629
4.55329
4.96517
5.25367
5.45028
5.5732
5.63253
5.63277
5.57393
5.45149
5.25537
4.96735
4.55591
3.96586
3.09817
1.78177
0.157724
0.166735
1.9385
3.48083
4.55251
5.30585
5.84147
6.22055
6.48027
6.64307
6.72172
6.72202
6.64398
6.48178
6.22264
5.84412
5.30899
4.55598
3.48429
1.94119
0.167137
0.173456
2.04758
3.74501
4.96371
5.84073
6.47417
6.92692
7.23895
7.43519
7.53013
7.53048
7.43623
7.24067
6.9293
6.47715
5.84423
4.96751
3.74873
2.0504
0.173869
0.178298
2.12391
3.92869
5.25161
6.21914
6.92622
7.43571
7.78868
8.01135
8.11927
8.11965
8.01249
7.79055
7.43829
6.92944
6.22288
5.25564
3.93257
2.12682
0.178718
0.181677
2.17616
4.05354
5.44773
6.47829
7.23764
7.78804
8.1709
8.41305
8.53056
8.53096
8.41426
8.17288
7.79075
7.24101
6.48218
5.4519
4.05754
2.17912
0.182102
0.183827
2.20896
4.13153
5.57026
6.64061
7.43334
8.01015
8.41248
8.66738
8.7912
8.79161
8.66863
8.41453
8.01295
7.4368
6.64459
5.5745
4.13559
2.21195
0.184255
0.184874
2.22481
4.1691
5.62926
6.71886
7.52784
8.11759
8.5295
8.7907
8.91763
8.91805
8.79196
8.53157
8.12043
7.53135
6.72289
5.63355
4.17319
2.22782
0.185303
0.184874
2.22481
4.1691
5.62926
6.71886
7.52784
8.11759
8.5295
8.7907
8.91763
8.91806
8.79196
8.53157
8.12043
7.53135
6.72289
5.63355
4.17319
2.22782
0.185303
0.183827
2.20896
4.13153
5.57025
6.64061
7.43334
8.01015
8.41248
8.66738
8.7912
8.79162
8.66863
8.41453
8.01295
7.4368
6.64459
5.5745
4.13559
2.21195
0.184255
0.181677
2.17616
4.05354
5.44773
6.47829
7.23764
7.78804
8.1709
8.41305
8.53056
8.53097
8.41426
8.17289
7.79076
7.24101
6.48218
5.4519
4.05754
2.17912
0.182102
0.178298
2.12391
3.92869
5.25161
6.21914
6.92622
7.43571
7.78868
8.01135
8.11927
8.11965
8.01249
7.79056
7.43829
6.92944
6.22288
5.25564
3.93257
2.12682
0.178718
0.173456
2.04758
3.74501
4.9637
5.84073
6.47417
6.92692
7.23895
7.43519
7.53013
7.53048
7.43623
7.24068
6.9293
6.47716
5.84423
4.96751
3.74873
2.0504
0.173869
0.166735
1.9385
3.48083
4.55251
5.30585
5.84147
6.22055
6.48028
6.64307
6.72172
6.72203
6.64398
6.48178
6.22265
5.84413
5.30899
4.55598
3.48429
1.94119
0.167137
0.157337
1.77929
3.09511
3.9629
4.55329
4.96517
5.25367
5.45028
5.5732
5.63253
5.63277
5.57393
5.45149
5.25537
4.96735
4.55591
3.96586
3.09817
1.78177
0.157724
0.143493
1.52898
2.5043
3.09591
3.48229
3.74702
3.93114
4.05636
4.13464
4.17244
4.1726
4.13514
4.0572
3.93233
3.74856
3.48418
3.09812
2.5067
1.53109
0.143855
0.120042
1.06525
1.52974
1.78058
1.94018
2.04955
2.12612
2.17854
2.21148
2.22744
2.22752
2.21172
2.17893
2.12668
2.05028
1.9411
1.7817
1.53106
1.06665
0.120355
0.066439
0.120201
0.143727
0.157618
0.167051
0.173798
0.178659
0.182054
0.184216
0.185271
0.185277
0.184234
0.182085
0.178704
0.173857
0.167127
0.157715
0.143848
0.12035
0.0666596
)
;

boundaryField
{
    leftWall
    {
        type            compressible::alphatWallFunction;
        value           nonuniform List<scalar> 
20
(
0.0128683
0.0214778
0.0251143
0.027224
0.0286369
0.0296354
0.0303471
0.0308395
0.0311507
0.0313015
0.0313015
0.0311507
0.0308395
0.0303471
0.0296353
0.0286369
0.027224
0.0251143
0.0214778
0.0128683
)
;
    }
    rightWall
    {
        type            compressible::alphatWallFunction;
        value           nonuniform List<scalar> 
20
(
0.0148657
0.0255047
0.0299747
0.032561
0.0342906
0.0355119
0.0363819
0.0369836
0.0373636
0.0375479
0.0375479
0.0373636
0.0369836
0.0363819
0.0355119
0.0342906
0.032561
0.0299747
0.0255047
0.0148657
)
;
    }
    topWall
    {
        type            compressible::alphatWallFunction;
        value           nonuniform List<scalar> 
20
(
0.0148801
0.0255134
0.029979
0.0325638
0.0342924
0.0355128
0.0363823
0.0369835
0.0373632
0.0375472
0.037547
0.0373626
0.0369824
0.0363807
0.0355106
0.0342894
0.0325599
0.0299737
0.025504
0.0148657
)
;
    }
    bottomWall
    {
        type            compressible::alphatWallFunction;
        value           nonuniform List<scalar> 
20
(
0.0148801
0.0255133
0.029979
0.0325638
0.0342924
0.0355128
0.0363823
0.0369835
0.0373632
0.0375472
0.037547
0.0373626
0.0369824
0.0363807
0.0355106
0.0342894
0.0325599
0.0299737
0.025504
0.0148657
)
;
    }
    frontAndBackPlanes
    {
        type            empty;
    }
}


// ************************************************************************* //
