/*--------------------------------*- C++ -*----------------------------------*\
| =========                 |                                                 |
| \\      /  F ield         | OpenFOAM: The Open Source CFD Toolbox           |
|  \\    /   O peration     | Version:  2506                                  |
|   \\  /    A nd           | Website:  www.openfoam.com                      |
|    \\/     M anipulation  |                                                 |
\*---------------------------------------------------------------------------*/
FoamFile
{
    version     2.0;
    format      ascii;
    arch        "LSB;label=32;scalar=64";
    class       volScalarField;
    location    "2.909796161";
    object      epsilon;
}
// * * * * * * * * * * * * * * * * * * * * * * * * * * * * * * * * * * * * * //

dimensions      [0 2 -3 0 0 0 0];

internalField   nonuniform List<scalar> 
400
(
0.00259246
0.0136062
0.022647
0.0294483
0.0347111
0.0387911
0.0418869
0.044121
0.0455714
0.0462852
0.0462845
0.0455694
0.0441174
0.0418817
0.0387841
0.0347022
0.0294376
0.0226346
0.0135903
0.00258389
0.0136153
0.0109227
0.0131118
0.0153546
0.0172751
0.0188324
0.0200423
0.0209274
0.0215067
0.021793
0.0217928
0.0215061
0.0209264
0.0200408
0.0188303
0.0172721
0.0153505
0.0131063
0.0109144
0.0135912
0.0226621
0.0131143
0.013207
0.0142047
0.0152817
0.0162425
0.0170276
0.0176191
0.0180129
0.0182094
0.0182093
0.0180126
0.0176184
0.0170265
0.0162408
0.0152793
0.0142013
0.0132021
0.0131066
0.0226366
0.0294689
0.015359
0.0142062
0.0144989
0.015105
0.0157382
0.0162946
0.0167311
0.0170286
0.0171788
0.0171787
0.0170282
0.0167304
0.0162936
0.0157366
0.0151028
0.0144957
0.0142015
0.015351
0.0294405
0.0347374
0.0172811
0.0152843
0.0151061
0.0153939
0.0158027
0.0162014
0.0165307
0.0167616
0.0168799
0.0168798
0.0167612
0.01653
0.0162003
0.0158011
0.0153917
0.0151029
0.0152795
0.0172728
0.0347058
0.0388226
0.0188398
0.016246
0.01574
0.0158034
0.0160508
0.0163341
0.0165841
0.0167654
0.0168598
0.0168597
0.016765
0.0165834
0.016333
0.0160492
0.0158012
0.0157368
0.0162411
0.0188311
0.0387881
0.0419227
0.0200508
0.0170318
0.0162971
0.0162027
0.0163346
0.016534
0.0167255
0.0168698
0.0169464
0.0169462
0.0168694
0.0167248
0.0165329
0.0163331
0.0162004
0.0162938
0.0170269
0.0200417
0.0418859
0.0441602
0.0209367
0.0176239
0.016734
0.0165324
0.0165851
0.0167259
0.0168761
0.0169941
0.0170578
0.0170577
0.0169937
0.0168754
0.0167248
0.0165835
0.0165301
0.0167307
0.0176189
0.0209274
0.0441216
0.0456132
0.0215166
0.0180181
0.0170318
0.0167636
0.0167666
0.0168705
0.0169944
0.0170955
0.017151
0.0171508
0.0170951
0.0169937
0.0168694
0.016765
0.0167613
0.0170285
0.018013
0.0215071
0.0455733
0.0463285
0.0218034
0.0182148
0.0171822
0.0168821
0.0168613
0.0169473
0.0170583
0.0171512
0.0172026
0.0172025
0.0171508
0.0170576
0.0169462
0.0168597
0.0168799
0.0171789
0.0182097
0.0217938
0.046288
0.0463285
0.0218034
0.0182148
0.0171822
0.0168821
0.0168613
0.0169473
0.0170583
0.0171512
0.0172026
0.0172025
0.0171508
0.0170576
0.0169462
0.0168597
0.0168799
0.0171789
0.0182097
0.0217938
0.046288
0.0456132
0.0215166
0.0180181
0.0170318
0.0167636
0.0167666
0.0168705
0.0169944
0.0170955
0.017151
0.0171508
0.0170951
0.0169937
0.0168694
0.016765
0.0167613
0.0170285
0.018013
0.0215071
0.0455733
0.0441602
0.0209367
0.0176239
0.016734
0.0165324
0.0165851
0.0167259
0.0168761
0.0169941
0.0170578
0.0170577
0.0169937
0.0168754
0.0167248
0.0165835
0.0165301
0.0167307
0.0176189
0.0209274
0.0441216
0.0419227
0.0200508
0.0170318
0.0162971
0.0162027
0.0163346
0.016534
0.0167255
0.0168698
0.0169464
0.0169462
0.0168694
0.0167248
0.0165329
0.0163331
0.0162004
0.0162938
0.0170269
0.0200417
0.0418859
0.0388226
0.0188398
0.016246
0.01574
0.0158034
0.0160508
0.0163341
0.0165841
0.0167654
0.0168598
0.0168597
0.016765
0.0165834
0.016333
0.0160492
0.0158012
0.0157368
0.0162411
0.0188311
0.0387881
0.0347374
0.0172811
0.0152843
0.0151061
0.0153939
0.0158027
0.0162014
0.0165307
0.0167616
0.0168799
0.0168798
0.0167612
0.01653
0.0162003
0.0158011
0.0153917
0.0151029
0.0152795
0.0172728
0.0347058
0.0294689
0.015359
0.0142062
0.0144989
0.015105
0.0157382
0.0162946
0.0167311
0.0170286
0.0171788
0.0171787
0.0170282
0.0167304
0.0162936
0.0157366
0.0151028
0.0144957
0.0142015
0.015351
0.0294405
0.0226621
0.0131143
0.013207
0.0142047
0.0152817
0.0162425
0.0170276
0.0176191
0.0180129
0.0182094
0.0182093
0.0180126
0.0176184
0.0170265
0.0162408
0.0152793
0.0142013
0.0132021
0.0131066
0.0226366
0.0136153
0.0109227
0.0131118
0.0153546
0.0172751
0.0188324
0.0200422
0.0209274
0.0215067
0.021793
0.0217928
0.0215061
0.0209264
0.0200408
0.0188303
0.0172721
0.0153505
0.0131063
0.0109144
0.0135912
0.00259246
0.0136062
0.022647
0.0294483
0.0347111
0.0387911
0.0418869
0.044121
0.0455714
0.0462852
0.0462845
0.0455694
0.0441174
0.0418817
0.0387841
0.0347022
0.0294376
0.0226346
0.0135903
0.00258389
)
;

boundaryField
{
    leftWall
    {
        type            epsilonWallFunction;
        blending        stepwise;
        value           nonuniform List<scalar> 
20
(
0.00259246
0.0136153
0.0226621
0.0294689
0.0347374
0.0388226
0.0419227
0.0441602
0.0456132
0.0463285
0.0463285
0.0456132
0.0441602
0.0419227
0.0388226
0.0347374
0.0294689
0.0226621
0.0136153
0.00259246
)
;
    }
    rightWall
    {
        type            epsilonWallFunction;
        blending        stepwise;
        value           nonuniform List<scalar> 
20
(
0.00258389
0.0135912
0.0226366
0.0294405
0.0347058
0.0387881
0.0418859
0.0441216
0.0455733
0.046288
0.046288
0.0455733
0.0441216
0.0418859
0.0387881
0.0347058
0.0294405
0.0226366
0.0135912
0.00258389
)
;
    }
    topWall
    {
        type            epsilonWallFunction;
        blending        stepwise;
        value           nonuniform List<scalar> 
20
(
0.00259246
0.0136062
0.022647
0.0294483
0.0347111
0.0387911
0.0418869
0.044121
0.0455714
0.0462852
0.0462845
0.0455694
0.0441174
0.0418817
0.0387841
0.0347022
0.0294376
0.0226346
0.0135903
0.00258389
)
;
    }
    bottomWall
    {
        type            epsilonWallFunction;
        blending        stepwise;
        value           nonuniform List<scalar> 
20
(
0.00259246
0.0136062
0.022647
0.0294483
0.0347111
0.0387911
0.0418869
0.044121
0.0455714
0.0462852
0.0462845
0.0455694
0.0441174
0.0418817
0.0387841
0.0347022
0.0294376
0.0226346
0.0135903
0.00258389
)
;
    }
    frontAndBackPlanes
    {
        type            empty;
    }
}


// ************************************************************************* //
