/*--------------------------------*- C++ -*----------------------------------*\
| =========                 |                                                 |
| \\      /  F ield         | OpenFOAM: The Open Source CFD Toolbox           |
|  \\    /   O peration     | Version:  2506                                  |
|   \\  /    A nd           | Website:  www.openfoam.com                      |
|    \\/     M anipulation  |                                                 |
\*---------------------------------------------------------------------------*/
FoamFile
{
    version     2.0;
    format      ascii;
    arch        "LSB;label=32;scalar=64";
    class       volScalarField;
    location    "2.909796161";
    object      k;
}
// * * * * * * * * * * * * * * * * * * * * * * * * * * * * * * * * * * * * * //

dimensions      [0 2 -2 0 0 0 0];

internalField   nonuniform List<scalar> 
400
(
0.00138519
0.00426346
0.00601301
0.00717945
0.00802375
0.00865126
0.00911427
0.00944226
0.00965272
0.0097556
0.00975548
0.00965237
0.00944167
0.0091134
0.00865009
0.00802225
0.00717759
0.00601074
0.00426016
0.00138246
0.00426538
0.0113724
0.0149276
0.0174256
0.0192919
0.0207011
0.0217498
0.0224962
0.0229764
0.0232114
0.0232112
0.0229756
0.0224948
0.0217478
0.0206985
0.0192884
0.0174211
0.0149221
0.0113658
0.00426038
0.00601568
0.0149289
0.0191691
0.0221007
0.0243093
0.0259951
0.0272605
0.0281667
0.0287522
0.0290395
0.0290392
0.0287514
0.0281653
0.0272583
0.0259922
0.0243055
0.0220959
0.0191632
0.0149224
0.00601115
0.0071828
0.0174282
0.0221021
0.0252624
0.0276365
0.0294559
0.0308288
0.0318166
0.0324569
0.0327717
0.0327714
0.032456
0.0318151
0.0308265
0.0294528
0.0276325
0.0252574
0.0220961
0.0174216
0.00717813
0.00802781
0.0192958
0.024312
0.0276379
0.0301173
0.0320154
0.0334501
0.0344849
0.035157
0.0354879
0.0354876
0.035156
0.0344832
0.0334477
0.0320122
0.0301131
0.0276327
0.0243059
0.0192891
0.00802287
0.00865597
0.0207061
0.025999
0.0294584
0.0320166
0.0339684
0.0354428
0.0365068
0.0371985
0.0375393
0.0375389
0.0371975
0.0365051
0.0354403
0.0339651
0.0320123
0.0294531
0.0259927
0.0206992
0.00865075
0.00911952
0.0217557
0.0272653
0.0308323
0.0334523
0.0354438
0.0369456
0.0380289
0.0387332
0.0390802
0.0390799
0.0387321
0.0380271
0.036943
0.0354403
0.0334479
0.0308269
0.0272589
0.0217486
0.00911406
0.00944795
0.0225029
0.0281724
0.0318209
0.0344879
0.0365086
0.0380297
0.039126
0.0398384
0.0401895
0.0401892
0.0398374
0.0391241
0.0380271
0.0365051
0.0344834
0.0318154
0.0281658
0.0224956
0.0094423
0.00965872
0.0229836
0.0287585
0.0324618
0.0351606
0.037201
0.0387347
0.0398391
0.0405567
0.0409102
0.0409098
0.0405556
0.0398373
0.038732
0.0371974
0.0351561
0.0324562
0.0287518
0.0229762
0.00965295
0.00976182
0.0232191
0.0290462
0.0327771
0.035492
0.0375423
0.0390822
0.0401907
0.0409107
0.0412654
0.041265
0.0409096
0.0401888
0.0390795
0.0375387
0.0354874
0.0327714
0.0290395
0.0232116
0.00975598
0.00976182
0.0232191
0.0290462
0.0327771
0.035492
0.0375423
0.0390822
0.0401907
0.0409107
0.0412654
0.041265
0.0409096
0.0401888
0.0390795
0.0375387
0.0354874
0.0327714
0.0290395
0.0232116
0.00975598
0.00965872
0.0229836
0.0287585
0.0324618
0.0351606
0.037201
0.0387347
0.0398391
0.0405567
0.0409102
0.0409098
0.0405556
0.0398373
0.038732
0.0371974
0.0351561
0.0324562
0.0287518
0.0229762
0.00965295
0.00944795
0.0225029
0.0281724
0.0318209
0.0344879
0.0365086
0.0380297
0.039126
0.0398384
0.0401895
0.0401892
0.0398374
0.0391241
0.0380271
0.0365051
0.0344834
0.0318154
0.0281658
0.0224956
0.0094423
0.00911952
0.0217557
0.0272653
0.0308323
0.0334523
0.0354438
0.0369456
0.0380289
0.0387332
0.0390802
0.0390799
0.0387321
0.0380271
0.036943
0.0354403
0.0334479
0.0308269
0.0272589
0.0217486
0.00911406
0.00865597
0.0207061
0.025999
0.0294584
0.0320166
0.0339684
0.0354428
0.0365068
0.0371985
0.0375393
0.0375389
0.0371975
0.0365051
0.0354403
0.0339651
0.0320123
0.0294531
0.0259927
0.0206992
0.00865075
0.00802781
0.0192958
0.024312
0.0276379
0.0301173
0.0320154
0.0334501
0.0344849
0.035157
0.0354879
0.0354876
0.035156
0.0344832
0.0334477
0.0320122
0.0301131
0.0276327
0.0243059
0.0192891
0.00802287
0.0071828
0.0174282
0.0221021
0.0252624
0.0276365
0.0294559
0.0308288
0.0318166
0.0324569
0.0327717
0.0327714
0.032456
0.0318151
0.0308265
0.0294528
0.0276325
0.0252574
0.0220961
0.0174216
0.00717814
0.00601568
0.0149289
0.0191691
0.0221007
0.0243093
0.0259951
0.0272604
0.0281667
0.0287522
0.0290395
0.0290392
0.0287514
0.0281653
0.0272583
0.0259922
0.0243055
0.0220959
0.0191632
0.0149224
0.00601115
0.00426538
0.0113724
0.0149276
0.0174255
0.0192919
0.0207011
0.0217498
0.0224962
0.0229764
0.0232114
0.0232112
0.0229756
0.0224949
0.0217478
0.0206985
0.0192884
0.0174211
0.0149221
0.0113658
0.00426038
0.00138519
0.00426346
0.00601301
0.00717945
0.00802375
0.00865126
0.00911427
0.00944226
0.00965272
0.0097556
0.00975549
0.00965237
0.00944167
0.0091134
0.00865009
0.00802225
0.00717759
0.00601074
0.00426016
0.00138246
)
;

boundaryField
{
    leftWall
    {
        type            kqRWallFunction;
        value           nonuniform List<scalar> 
20
(
0.00138519
0.00426538
0.00601568
0.0071828
0.00802781
0.00865597
0.00911952
0.00944795
0.00965872
0.00976182
0.00976182
0.00965872
0.00944795
0.00911952
0.00865597
0.00802781
0.0071828
0.00601568
0.00426538
0.00138519
)
;
    }
    rightWall
    {
        type            kqRWallFunction;
        value           nonuniform List<scalar> 
20
(
0.00138246
0.00426038
0.00601115
0.00717813
0.00802287
0.00865075
0.00911406
0.0094423
0.00965295
0.00975598
0.00975598
0.00965295
0.0094423
0.00911406
0.00865075
0.00802287
0.00717814
0.00601115
0.00426038
0.00138246
)
;
    }
    topWall
    {
        type            kqRWallFunction;
        value           nonuniform List<scalar> 
20
(
0.00138519
0.00426346
0.00601301
0.00717945
0.00802375
0.00865126
0.00911427
0.00944226
0.00965272
0.0097556
0.00975548
0.00965237
0.00944167
0.0091134
0.00865009
0.00802225
0.00717759
0.00601074
0.00426016
0.00138246
)
;
    }
    bottomWall
    {
        type            kqRWallFunction;
        value           nonuniform List<scalar> 
20
(
0.00138519
0.00426346
0.00601301
0.00717945
0.00802375
0.00865126
0.00911427
0.00944226
0.00965272
0.0097556
0.00975549
0.00965237
0.00944167
0.0091134
0.00865009
0.00802225
0.00717759
0.00601074
0.00426016
0.00138246
)
;
    }
    frontAndBackPlanes
    {
        type            empty;
    }
}


// ************************************************************************* //
