/*--------------------------------*- C++ -*----------------------------------*\
| =========                 |                                                 |
| \\      /  F ield         | OpenFOAM: The Open Source CFD Toolbox           |
|  \\    /   O peration     | Version:  2506                                  |
|   \\  /    A nd           | Website:  www.openfoam.com                      |
|    \\/     M anipulation  |                                                 |
\*---------------------------------------------------------------------------*/
FoamFile
{
    version     2.0;
    format      ascii;
    arch        "LSB;label=32;scalar=64";
    class       volScalarField;
    location    "2.909796161";
    object      nut;
}
// * * * * * * * * * * * * * * * * * * * * * * * * * * * * * * * * * * * * * //

dimensions      [0 2 -1 0 0 0 0];

internalField   nonuniform List<scalar> 
400
(
6.66115e-05
0.000120235
0.000143686
0.00015753
0.000166928
0.000173648
0.000178488
0.000181865
0.000184013
0.000185058
0.000185056
0.000184008
0.000181857
0.000178476
0.000173632
0.000166908
0.000157506
0.000143656
0.000120189
6.65693e-05
0.000120263
0.00106565
0.00152954
0.00177983
0.00193897
0.00204798
0.00212425
0.00217643
0.00220918
0.002225
0.00222497
0.00220909
0.00217628
0.00212402
0.00204768
0.0019386
0.00177938
0.00152905
0.00106523
0.000120193
0.000143718
0.00152951
0.00250404
0.00309473
0.0034803
0.00374432
0.00392785
0.00405259
0.00413048
0.00416797
0.00416792
0.00413033
0.00405234
0.0039275
0.00374386
0.00347974
0.00309411
0.00250343
0.00152908
0.000143663
0.000157567
0.00177986
0.0030948
0.00396147
0.0045508
0.00496173
0.00524941
0.00544535
0.00556773
0.00562663
0.00562657
0.00556754
0.00544504
0.00524898
0.00496118
0.00455016
0.00396078
0.00309415
0.00177943
0.000157514
0.000166971
0.00193908
0.00348047
0.00455092
0.00530303
0.00583753
0.00621564
0.00647454
0.00663667
0.0067148
0.00671473
0.00663646
0.00647419
0.00621516
0.00583693
0.00530233
0.00455019
0.0034798
0.00193866
0.000166917
0.000173696
0.00204817
0.00374462
0.004962
0.00583769
0.00646989
0.00692155
0.00723265
0.00742813
0.00752248
0.00752241
0.0074279
0.00723228
0.00692103
0.00646924
0.00583695
0.00496123
0.00374393
0.00204774
0.000173641
0.000178541
0.00212451
0.00392827
0.00524982
0.00621594
0.00692171
0.00743002
0.00778199
0.00800384
0.0081111
0.00811102
0.00800359
0.00778159
0.00742947
0.00692103
0.00621517
0.00524902
0.00392756
0.00212407
0.000178484
0.000181923
0.00217675
0.00405311
0.00544589
0.00647499
0.00723296
0.00778214
0.00816395
0.00840523
0.00852205
0.00852197
0.00840497
0.00816353
0.00778157
0.00723226
0.00647419
0.00544506
0.00405238
0.00217631
0.000181864
0.000184074
0.00220955
0.00413109
0.00556838
0.00663724
0.00742857
0.00800412
0.00840536
0.00865936
0.00878247
0.00878238
0.0086591
0.00840493
0.00800354
0.00742784
0.00663642
0.00556753
0.00413034
0.00220911
0.000184014
0.000185121
0.00222541
0.00416865
0.00562736
0.00671546
0.00752302
0.0081115
0.0085223
0.00878259
0.0089088
0.00890871
0.00878232
0.00852186
0.0081109
0.00752229
0.00671464
0.00562651
0.0041679
0.00222496
0.000185061
0.000185121
0.00222541
0.00416865
0.00562736
0.00671546
0.00752302
0.0081115
0.0085223
0.00878259
0.0089088
0.00890871
0.00878232
0.00852186
0.00811091
0.00752229
0.00671464
0.00562651
0.0041679
0.00222496
0.000185061
0.000184074
0.00220955
0.00413109
0.00556838
0.00663724
0.00742857
0.00800412
0.00840536
0.00865936
0.00878247
0.00878239
0.0086591
0.00840493
0.00800354
0.00742784
0.00663642
0.00556753
0.00413034
0.00220911
0.000184014
0.000181923
0.00217675
0.00405311
0.00544589
0.00647499
0.00723296
0.00778214
0.00816395
0.00840523
0.00852205
0.00852197
0.00840497
0.00816353
0.00778157
0.00723226
0.00647419
0.00544506
0.00405238
0.00217631
0.000181864
0.000178541
0.00212451
0.00392827
0.00524982
0.00621594
0.00692171
0.00743002
0.00778199
0.00800384
0.00811111
0.00811103
0.0080036
0.00778159
0.00742947
0.00692103
0.00621517
0.00524902
0.00392756
0.00212407
0.000178484
0.000173696
0.00204817
0.00374462
0.004962
0.00583769
0.00646989
0.00692155
0.00723266
0.00742813
0.00752248
0.00752241
0.0074279
0.00723228
0.00692103
0.00646924
0.00583695
0.00496123
0.00374393
0.00204774
0.000173641
0.000166971
0.00193908
0.00348047
0.00455092
0.00530303
0.00583753
0.00621564
0.00647454
0.00663667
0.0067148
0.00671473
0.00663646
0.00647419
0.00621516
0.00583693
0.00530233
0.00455019
0.0034798
0.00193866
0.000166917
0.000157567
0.00177986
0.0030948
0.00396147
0.0045508
0.00496173
0.00524941
0.00544535
0.00556773
0.00562663
0.00562657
0.00556754
0.00544504
0.00524898
0.00496119
0.00455016
0.00396078
0.00309415
0.00177943
0.000157514
0.000143718
0.00152951
0.00250404
0.00309473
0.0034803
0.00374432
0.00392785
0.00405259
0.00413048
0.00416797
0.00416792
0.00413033
0.00405234
0.0039275
0.00374386
0.00347974
0.00309411
0.00250343
0.00152908
0.000143663
0.000120263
0.00106565
0.00152954
0.00177983
0.00193897
0.00204798
0.00212425
0.00217643
0.00220918
0.002225
0.00222497
0.00220909
0.00217628
0.00212402
0.00204768
0.0019386
0.00177938
0.00152905
0.00106523
0.000120193
6.66115e-05
0.000120235
0.000143686
0.00015753
0.000166928
0.000173648
0.000178488
0.000181865
0.000184013
0.000185058
0.000185057
0.000184008
0.000181857
0.000178476
0.000173632
0.000166908
0.000157506
0.000143656
0.000120189
6.65693e-05
)
;

boundaryField
{
    leftWall
    {
        type            nutkWallFunction;
        blending        stepwise;
        value           nonuniform List<scalar> 
20
(
1.12359e-05
1.87533e-05
2.19285e-05
2.37705e-05
2.50041e-05
2.5876e-05
2.64974e-05
2.69274e-05
2.7199e-05
2.73307e-05
2.73307e-05
2.7199e-05
2.69274e-05
2.64974e-05
2.58759e-05
2.50041e-05
2.37705e-05
2.19285e-05
1.87533e-05
1.12359e-05
)
;
    }
    rightWall
    {
        type            nutkWallFunction;
        blending        stepwise;
        value           nonuniform List<scalar> 
20
(
1.26187e-05
2.16495e-05
2.54439e-05
2.76393e-05
2.91074e-05
3.01441e-05
3.08826e-05
3.13933e-05
3.1716e-05
3.18723e-05
3.18723e-05
3.1716e-05
3.13933e-05
3.08826e-05
3.01441e-05
2.91074e-05
2.76393e-05
2.54439e-05
2.16495e-05
1.26187e-05
)
;
    }
    topWall
    {
        type            nutkWallFunction;
        blending        stepwise;
        value           nonuniform List<scalar> 
20
(
1.26309e-05
2.16569e-05
2.54475e-05
2.76416e-05
2.91089e-05
3.01449e-05
3.08829e-05
3.13933e-05
3.17156e-05
3.18718e-05
3.18716e-05
3.17151e-05
3.13924e-05
3.08816e-05
3.0143e-05
2.91064e-05
2.76383e-05
2.54431e-05
2.1649e-05
1.26187e-05
)
;
    }
    bottomWall
    {
        type            nutkWallFunction;
        blending        stepwise;
        value           nonuniform List<scalar> 
20
(
1.26309e-05
2.16569e-05
2.54475e-05
2.76416e-05
2.91089e-05
3.01449e-05
3.08829e-05
3.13933e-05
3.17156e-05
3.18718e-05
3.18716e-05
3.17151e-05
3.13924e-05
3.08816e-05
3.0143e-05
2.91064e-05
2.76383e-05
2.54431e-05
2.1649e-05
1.26187e-05
)
;
    }
    frontAndBackPlanes
    {
        type            empty;
    }
}


// ************************************************************************* //
