/*--------------------------------*- C++ -*----------------------------------*\
| =========                 |                                                 |
| \\      /  F ield         | OpenFOAM: The Open Source CFD Toolbox           |
|  \\    /   O peration     | Version:  2506                                  |
|   \\  /    A nd           | Website:  www.openfoam.com                      |
|    \\/     M anipulation  |                                                 |
\*---------------------------------------------------------------------------*/
FoamFile
{
    version     2.0;
    format      ascii;
    arch        "LSB;label=32;scalar=64";
    class       surfaceScalarField;
    location    "2.909796161";
    object      phi;
}
// * * * * * * * * * * * * * * * * * * * * * * * * * * * * * * * * * * * * * //

dimensions      [1 0 -1 0 0 0 0];

oriented        oriented;

internalField   nonuniform List<scalar> 
760
(
-7.20076e-06
-8.57283e-06
-2.61674e-06
-4.32735e-06
-6.15928e-07
-3.22149e-06
5.24864e-07
-2.89038e-06
1.20795e-06
-2.53096e-06
1.62934e-06
-2.21171e-06
1.90074e-06
-1.93663e-06
2.08088e-06
-1.69556e-06
2.20066e-06
-1.48382e-06
2.27715e-06
-1.29875e-06
2.3202e-06
-1.13829e-06
2.33557e-06
-1.00101e-06
2.32642e-06
-8.86154e-07
2.2942e-06
-7.93978e-07
2.23909e-06
-7.26724e-07
2.15942e-06
-6.87904e-07
2.06229e-06
-6.80316e-07
2.05537e-06
-7.63537e-07
2.57025e-06
-1.35265e-06
-2.63283e-06
-1.58954e-06
-5.51716e-06
-1.07299e-06
-4.25866e-06
-3.17559e-07
-3.42817e-06
2.29205e-07
-2.92088e-06
6.61358e-07
-2.4794e-06
1.00346e-06
-2.10367e-06
1.27371e-06
-1.79136e-06
1.48941e-06
-1.53104e-06
1.66281e-06
-1.31245e-06
1.80204e-06
-1.12818e-06
1.91261e-06
-9.7302e-07
1.99842e-06
-8.43458e-07
2.06245e-06
-7.37474e-07
2.10739e-06
-6.54811e-07
2.13584e-06
-5.97519e-07
2.15141e-06
-5.70188e-07
2.17066e-06
-5.88822e-07
2.22823e-06
-7.31537e-07
2.12181e-06
-1.1777e-06
-1.68725e-06
-2.49479e-07
-4.52884e-06
-2.77472e-07
-3.67947e-06
-9.57031e-08
-3.08453e-06
1.23974e-07
-2.63873e-06
3.65847e-07
-2.24493e-06
6.09566e-07
-1.8989e-06
8.40802e-07
-1.60403e-06
1.05318e-06
-1.3563e-06
1.24452e-06
-1.14897e-06
1.41445e-06
-9.75817e-07
1.56352e-06
-8.31906e-07
1.69274e-06
-7.13652e-07
1.80339e-06
-6.18908e-07
1.89692e-06
-5.47222e-07
1.97454e-06
-5.00249e-07
2.0377e-06
-4.82767e-07
2.08701e-06
-5.1002e-07
2.08997e-06
-6.27378e-07
1.88935e-06
-8.90634e-07
-1.14293e-06
-3.05064e-07
-3.86553e-06
-2.71203e-07
-3.18809e-06
-1.74897e-07
-2.6755e-06
-4.18418e-08
-2.28431e-06
1.27394e-07
-1.94705e-06
3.21666e-07
-1.64941e-06
5.26824e-07
-1.39147e-06
7.31885e-07
-1.17177e-06
9.29626e-07
-9.86641e-07
1.11561e-06
-8.3196e-07
1.28731e-06
-7.04039e-07
1.44349e-06
-6.00005e-07
1.58374e-06
-5.18044e-07
1.70797e-06
-4.57655e-07
1.81582e-06
-4.1996e-07
1.90584e-06
-4.08493e-07
1.97098e-06
-4.32946e-07
1.97998e-06
-5.1476e-07
1.85978e-06
-6.69199e-07
-7.89735e-07
-4.05339e-07
-3.22383e-06
-4.03928e-07
-2.68303e-06
-3.37562e-07
-2.25245e-06
-2.2995e-07
-1.91677e-06
-8.60782e-08
-1.63246e-06
8.6822e-08
-1.38376e-06
2.78314e-07
-1.16731e-06
4.7835e-07
-9.81498e-07
6.78887e-07
-8.23982e-07
8.74007e-07
-6.92063e-07
1.0596e-06
-5.83185e-07
1.23292e-06
-4.95251e-07
1.3922e-06
-4.26858e-07
1.53605e-06
-3.77494e-07
1.66283e-06
-3.477e-07
1.76949e-06
-3.39417e-07
1.84805e-06
-3.57398e-07
1.87689e-06
-4.09724e-07
1.81674e-06
-4.95411e-07
-5.42032e-07
-4.96932e-07
-2.58073e-06
-5.28228e-07
-2.15849e-06
-4.88504e-07
-1.81485e-06
-3.98159e-07
-1.54185e-06
-2.6782e-07
-1.31168e-06
-1.06035e-07
-1.11174e-06
7.78585e-08
-9.37847e-07
2.74715e-07
-7.88089e-07
4.76587e-07
-6.60691e-07
6.7706e-07
-5.53809e-07
8.71205e-07
-4.65693e-07
1.05534e-06
-3.94869e-07
1.22668e-06
-3.40291e-07
1.38291e-06
-3.01443e-07
1.52155e-06
-2.78374e-07
1.63904e-06
-2.71721e-07
1.72859e-06
-2.82964e-07
1.77631e-06
-3.13404e-07
1.76118e-06
-3.56403e-07
-3.65731e-07
-5.82811e-07
-1.93617e-06
-6.32254e-07
-1.62494e-06
-6.10939e-07
-1.36763e-06
-5.33898e-07
-1.16111e-06
-4.13207e-07
-9.87015e-07
-2.5871e-07
-8.36357e-07
-7.97633e-08
-7.05508e-07
1.14802e-07
-5.92714e-07
3.1714e-07
-4.96603e-07
5.20628e-07
-4.15895e-07
7.19882e-07
-3.49415e-07
9.10618e-07
-2.96159e-07
1.0894e-06
-2.55369e-07
1.25331e-06
-2.26566e-07
1.39949e-06
-2.09503e-07
1.52454e-06
-2.04037e-07
1.62341e-06
-2.09955e-07
1.68799e-06
-2.25833e-07
1.70823e-06
-2.44627e-07
-2.38275e-07
-6.51635e-07
-1.29062e-06
-7.12482e-07
-1.08604e-06
-7.02969e-07
-9.14683e-07
-6.35298e-07
-7.76317e-07
-5.21568e-07
-6.59602e-07
-3.72192e-07
-5.5879e-07
-1.96709e-07
-4.71339e-07
-3.89904e-09
-3.95951e-07
1.98407e-07
-3.31674e-07
4.03463e-07
-2.7768e-07
6.05614e-07
-2.33235e-07
8.00209e-07
-1.97708e-07
9.83416e-07
-1.70597e-07
1.15199e-06
-1.51526e-07
1.303e-06
-1.40174e-07
1.43348e-06
-1.36133e-07
1.53999e-06
-1.38671e-07
1.61831e-06
-1.45922e-07
1.66438e-06
-1.52588e-07
-1.42842e-07
-6.98319e-07
-6.45119e-07
-7.66188e-07
-5.43796e-07
-7.64005e-07
-4.58209e-07
-7.02411e-07
-3.88846e-07
-5.93305e-07
-3.30298e-07
-4.47324e-07
-2.79772e-07
-2.74145e-07
-2.35975e-07
-8.25843e-08
-1.98227e-07
1.19501e-07
-1.66037e-07
3.2528e-07
-1.38996e-07
5.28941e-07
-1.16747e-07
7.25623e-07
-9.89842e-08
9.1128e-07
-8.54553e-08
1.08253e-06
-7.59515e-08
1.23647e-06
-7.02628e-08
1.37057e-06
-6.80899e-08
1.48253e-06
-6.89008e-08
1.57042e-06
-7.15305e-08
1.63321e-06
-7.32072e-08
-6.68229e-08
-7.21784e-07
2.51374e-12
-7.9294e-07
2.46711e-12
-7.94318e-07
2.42129e-12
-7.35752e-07
2.41851e-12
-6.28984e-07
2.44883e-12
-4.84722e-07
2.50963e-12
-3.12716e-07
2.58661e-12
-1.21816e-07
2.67647e-12
8.00953e-08
2.76962e-12
2.8614e-07
2.83221e-12
4.90434e-07
2.84957e-12
6.8802e-07
2.81052e-12
8.74763e-07
2.73181e-12
1.04723e-06
2.63923e-12
1.20257e-06
2.54339e-12
1.3385e-06
2.46076e-12
1.4533e-06
2.40699e-12
1.54607e-06
2.38608e-12
1.61706e-06
2.41455e-12
2.41282e-12
-7.21784e-07
6.45124e-07
-7.9294e-07
5.43801e-07
-7.94318e-07
4.58214e-07
-7.35752e-07
3.88851e-07
-6.28984e-07
3.30303e-07
-4.84722e-07
2.79777e-07
-3.12716e-07
2.35981e-07
-1.21816e-07
1.98233e-07
8.00951e-08
1.66043e-07
2.8614e-07
1.39002e-07
4.90434e-07
1.16753e-07
6.8802e-07
9.89898e-08
8.74763e-07
8.54607e-08
1.04723e-06
7.59567e-08
1.20257e-06
7.02678e-08
1.3385e-06
6.80948e-08
1.4533e-06
6.89056e-08
1.54607e-06
7.15352e-08
1.61705e-06
7.3212e-08
6.68277e-08
-6.98319e-07
1.29062e-06
-7.66188e-07
1.08605e-06
-7.64005e-07
9.14688e-07
-7.02411e-07
7.76322e-07
-5.93306e-07
6.59607e-07
-4.47324e-07
5.58795e-07
-2.74145e-07
4.71344e-07
-8.25848e-08
3.95957e-07
1.19501e-07
3.31679e-07
3.2528e-07
2.77686e-07
5.28941e-07
2.3324e-07
7.25622e-07
1.97713e-07
9.1128e-07
1.70602e-07
1.08253e-06
1.51531e-07
1.23647e-06
1.40179e-07
1.37057e-06
1.36138e-07
1.48253e-06
1.38676e-07
1.57042e-06
1.45926e-07
1.63321e-06
1.52593e-07
1.42847e-07
-6.51635e-07
1.93617e-06
-7.12482e-07
1.62495e-06
-7.02969e-07
1.36763e-06
-6.35298e-07
1.16111e-06
-5.21568e-07
9.8702e-07
-3.72193e-07
8.36362e-07
-1.96709e-07
7.05513e-07
-3.89968e-09
5.9272e-07
1.98406e-07
4.96609e-07
4.03462e-07
4.15901e-07
6.05614e-07
3.4942e-07
8.00208e-07
2.96164e-07
9.83416e-07
2.55374e-07
1.15199e-06
2.26571e-07
1.303e-06
2.09508e-07
1.43348e-06
2.04042e-07
1.53999e-06
2.0996e-07
1.61831e-06
2.25837e-07
1.66438e-06
2.44632e-07
2.38279e-07
-5.82811e-07
2.58073e-06
-6.32254e-07
2.1585e-06
-6.10939e-07
1.81485e-06
-5.33898e-07
1.54185e-06
-4.13207e-07
1.31168e-06
-2.5871e-07
1.11175e-06
-7.97639e-08
9.37852e-07
1.14801e-07
7.88095e-07
3.17139e-07
6.60697e-07
5.20627e-07
5.53814e-07
7.19882e-07
4.65698e-07
9.10617e-07
3.94874e-07
1.0894e-06
3.40296e-07
1.25331e-06
3.01448e-07
1.39949e-06
2.78379e-07
1.52454e-06
2.71725e-07
1.62341e-06
2.82968e-07
1.68799e-06
3.13408e-07
1.70823e-06
3.56407e-07
3.65734e-07
-4.96932e-07
3.22384e-06
-5.28228e-07
2.68303e-06
-4.88504e-07
2.25246e-06
-3.98159e-07
1.91678e-06
-2.6782e-07
1.63247e-06
-1.06036e-07
1.38376e-06
7.78578e-08
1.16731e-06
2.74714e-07
9.81503e-07
4.76586e-07
8.23987e-07
6.77059e-07
6.92068e-07
8.71204e-07
5.8319e-07
1.05534e-06
4.95256e-07
1.22668e-06
4.26862e-07
1.3829e-06
3.77499e-07
1.52155e-06
3.47705e-07
1.63904e-06
3.39421e-07
1.72859e-06
3.57402e-07
1.77631e-06
4.09728e-07
1.76118e-06
4.95415e-07
5.42034e-07
-4.05338e-07
3.86554e-06
-4.03928e-07
3.18809e-06
-3.37562e-07
2.6755e-06
-2.2995e-07
2.28431e-06
-8.60782e-08
1.94705e-06
8.68217e-08
1.64941e-06
2.78313e-07
1.39147e-06
4.78349e-07
1.17177e-06
6.78886e-07
9.86646e-07
8.74006e-07
8.31965e-07
1.05959e-06
7.04044e-07
1.23292e-06
6.0001e-07
1.3922e-06
5.18048e-07
1.53605e-06
4.57659e-07
1.66283e-06
4.19964e-07
1.76949e-06
4.08497e-07
1.84805e-06
4.32949e-07
1.87689e-06
5.14763e-07
1.81674e-06
6.69202e-07
7.89737e-07
-3.05064e-07
4.52884e-06
-2.71202e-07
3.67947e-06
-1.74896e-07
3.08453e-06
-4.18415e-08
2.63873e-06
1.27395e-07
2.24494e-06
3.21665e-07
1.8989e-06
5.26824e-07
1.60403e-06
7.31884e-07
1.35631e-06
9.29625e-07
1.14897e-06
1.11561e-06
9.75822e-07
1.28731e-06
8.3191e-07
1.44349e-06
7.13656e-07
1.58374e-06
6.18912e-07
1.70797e-06
5.47226e-07
1.81582e-06
5.00253e-07
1.90584e-06
4.8277e-07
1.97098e-06
5.10023e-07
1.97998e-06
6.27381e-07
1.85978e-06
8.90636e-07
1.14293e-06
-2.49479e-07
5.51716e-06
-2.77471e-07
4.25866e-06
-9.57026e-08
3.42817e-06
1.23975e-07
2.92088e-06
3.65847e-07
2.47941e-06
6.09566e-07
2.10367e-06
8.40802e-07
1.79136e-06
1.05318e-06
1.53105e-06
1.24452e-06
1.31245e-06
1.41445e-06
1.12818e-06
1.56352e-06
9.73025e-07
1.69274e-06
8.43462e-07
1.80339e-06
7.37478e-07
1.89692e-06
6.54815e-07
1.97454e-06
5.97522e-07
2.0377e-06
5.70191e-07
2.08701e-06
5.88825e-07
2.08997e-06
7.31539e-07
1.88935e-06
1.17771e-06
1.68725e-06
-1.58954e-06
8.57283e-06
-1.07299e-06
4.32735e-06
-3.17559e-07
3.22149e-06
2.29205e-07
2.89038e-06
6.61359e-07
2.53096e-06
1.00346e-06
2.21172e-06
1.27371e-06
1.93664e-06
1.48941e-06
1.69556e-06
1.66281e-06
1.48383e-06
1.80204e-06
1.29875e-06
1.91261e-06
1.13829e-06
1.99842e-06
1.00101e-06
2.06245e-06
8.86157e-07
2.10739e-06
7.93982e-07
2.13584e-06
7.26727e-07
2.15141e-06
6.87907e-07
2.17066e-06
6.80319e-07
2.22823e-06
7.63539e-07
2.12181e-06
1.35265e-06
2.63283e-06
-7.20076e-06
-2.61674e-06
-6.15928e-07
5.24864e-07
1.20795e-06
1.62934e-06
1.90074e-06
2.08088e-06
2.20066e-06
2.27715e-06
2.3202e-06
2.33557e-06
2.32642e-06
2.2942e-06
2.23909e-06
2.15942e-06
2.06229e-06
2.05537e-06
2.57025e-06
)
;

boundaryField
{
    leftWall
    {
        type            calculated;
        value           nonuniform List<scalar> 
20
(
8.0966e-06
-8.19563e-07
-1.39938e-07
2.12944e-07
3.19289e-07
4.00621e-07
4.80074e-07
5.45239e-07
5.90651e-07
6.13962e-07
6.13962e-07
5.90651e-07
5.45239e-07
4.80074e-07
4.00621e-07
3.19289e-07
2.12944e-07
-1.39938e-07
-8.19562e-07
8.0966e-06
)
;
    }
    rightWall
    {
        type            calculated;
        value           nonuniform List<scalar> 
20
(
2.60755e-06
1.21772e-06
1.40537e-06
1.58132e-06
1.65555e-06
1.68103e-06
1.68459e-06
1.6785e-06
1.67056e-06
1.66551e-06
1.66551e-06
1.67056e-06
1.6785e-06
1.68459e-06
1.68103e-06
1.65555e-06
1.58132e-06
1.40537e-06
1.21772e-06
2.60755e-06
)
;
    }
    topWall
    {
        type            calculated;
        value           nonuniform List<scalar> 
20
(
8.32837e-06
3.64885e-07
1.7872e-06
2.26925e-06
2.32488e-06
2.22616e-06
2.06051e-06
1.87081e-06
1.68065e-06
1.50162e-06
1.33934e-06
1.19681e-06
1.07605e-06
9.79131e-07
9.09464e-07
8.72228e-07
8.60988e-07
8.33865e-07
8.79641e-07
2.60755e-06
)
;
    }
    bottomWall
    {
        type            calculated;
        value           nonuniform List<scalar> 
20
(
8.32837e-06
3.64887e-07
1.7872e-06
2.26926e-06
2.32489e-06
2.22616e-06
2.06051e-06
1.87081e-06
1.68065e-06
1.50162e-06
1.33935e-06
1.19681e-06
1.07606e-06
9.79134e-07
9.09467e-07
8.7223e-07
8.6099e-07
8.33866e-07
8.79642e-07
2.60755e-06
)
;
    }
    frontAndBackPlanes
    {
        type            empty;
    }
}


// ************************************************************************* //
