/*--------------------------------*- C++ -*----------------------------------*\
| =========                 |                                                 |
| \\      /  F ield         | OpenFOAM: The Open Source CFD Toolbox           |
|  \\    /   O peration     | Version:  2506                                  |
|   \\  /    A nd           | Website:  www.openfoam.com                      |
|    \\/     M anipulation  |                                                 |
\*---------------------------------------------------------------------------*/
FoamFile
{
    version     2.0;
    format      ascii;
    arch        "LSB;label=32;scalar=64";
    class       volScalarField;
    location    "2.909796161";
    object      T;
}
// * * * * * * * * * * * * * * * * * * * * * * * * * * * * * * * * * * * * * //

dimensions      [0 0 0 1 0 0 0];

internalField   nonuniform List<scalar> 
400
(
288.771
279.631
277.349
276.251
275.537
275.017
274.618
274.303
274.051
273.846
273.68
273.544
273.433
273.342
273.268
273.206
273.155
273.111
273.068
273.017
285.789
280.007
277.972
276.794
275.994
275.405
274.949
274.588
274.296
274.057
273.861
273.699
273.566
273.455
273.364
273.288
273.225
273.171
273.123
273.068
284.744
279.888
278.08
276.971
276.184
275.587
275.117
274.739
274.431
274.177
273.966
273.792
273.647
273.526
273.426
273.343
273.273
273.215
273.163
273.104
284.331
279.775
278.094
277.049
276.289
275.7
275.229
274.845
274.529
274.266
274.047
273.864
273.711
273.583
273.477
273.389
273.315
273.253
273.197
273.133
284.123
279.698
278.088
277.088
276.353
275.777
275.31
274.925
274.605
274.337
274.112
273.923
273.764
273.632
273.521
273.428
273.351
273.286
273.227
273.158
284.002
279.647
278.08
277.11
276.396
275.83
275.369
274.985
274.664
274.393
274.164
273.971
273.809
273.672
273.558
273.462
273.382
273.314
273.253
273.18
283.924
279.614
278.073
277.124
276.424
275.868
275.412
275.03
274.708
274.436
274.205
274.01
273.844
273.705
273.588
273.49
273.407
273.337
273.274
273.197
283.875
279.593
278.069
277.133
276.443
275.894
275.441
275.062
274.741
274.468
274.235
274.038
273.871
273.729
273.61
273.511
273.427
273.355
273.29
273.21
283.846
279.581
278.066
277.138
276.454
275.91
275.46
275.082
274.762
274.488
274.255
274.057
273.888
273.746
273.626
273.525
273.44
273.367
273.3
273.219
283.832
279.576
278.065
277.141
276.46
275.918
275.47
275.092
274.772
274.498
274.265
274.066
273.897
273.754
273.633
273.532
273.446
273.373
273.306
273.224
283.832
279.576
278.065
277.141
276.46
275.918
275.47
275.092
274.772
274.498
274.265
274.066
273.897
273.754
273.633
273.532
273.446
273.373
273.306
273.224
283.846
279.581
278.066
277.138
276.454
275.91
275.46
275.082
274.762
274.488
274.255
274.057
273.888
273.746
273.626
273.525
273.44
273.367
273.3
273.219
283.875
279.593
278.069
277.133
276.443
275.894
275.441
275.062
274.741
274.468
274.235
274.038
273.871
273.729
273.61
273.511
273.427
273.355
273.29
273.21
283.924
279.614
278.073
277.124
276.424
275.868
275.412
275.03
274.708
274.436
274.205
274.01
273.844
273.705
273.588
273.49
273.407
273.337
273.274
273.197
284.002
279.647
278.08
277.11
276.396
275.83
275.369
274.985
274.664
274.393
274.164
273.971
273.809
273.672
273.558
273.462
273.382
273.314
273.253
273.18
284.123
279.698
278.088
277.088
276.353
275.777
275.31
274.925
274.605
274.337
274.112
273.923
273.764
273.632
273.521
273.428
273.351
273.286
273.227
273.158
284.331
279.775
278.094
277.049
276.289
275.7
275.229
274.845
274.529
274.266
274.047
273.864
273.711
273.583
273.477
273.389
273.315
273.253
273.197
273.133
284.744
279.888
278.08
276.971
276.184
275.587
275.117
274.739
274.431
274.177
273.966
273.792
273.647
273.526
273.426
273.343
273.273
273.215
273.163
273.104
285.789
280.007
277.972
276.794
275.994
275.405
274.949
274.588
274.296
274.057
273.861
273.699
273.566
273.455
273.364
273.288
273.225
273.171
273.123
273.068
288.771
279.631
277.349
276.251
275.537
275.017
274.618
274.303
274.051
273.846
273.68
273.544
273.433
273.342
273.268
273.206
273.155
273.111
273.068
273.017
)
;

boundaryField
{
    leftWall
    {
        type            fixedValue;
        value           uniform 373;
    }
    rightWall
    {
        type            fixedValue;
        value           uniform 273;
    }
    topWall
    {
        type            fixedValue;
        value           uniform 273;
    }
    bottomWall
    {
        type            fixedValue;
        value           uniform 273;
    }
    frontAndBackPlanes
    {
        type            empty;
    }
}


// ************************************************************************* //
